      -----------------------------------------------------------      
     |                   =====================                   |     
     |                           x T B                           |     
     |                   =====================                   |     
     |                         S. Grimme                         |     
     |          Mulliken Center for Theoretical Chemistry        |     
     |                    University of Bonn                     |     
      -----------------------------------------------------------      

   * xtb version 6.5.1 (579679a) compiled by 'ehlert@majestix' on 2022-07-11

   xtb is free software: you can redistribute it and/or modify it under
   the terms of the GNU Lesser General Public License as published by
   the Free Software Foundation, either version 3 of the License, or
   (at your option) any later version.
   
   xtb is distributed in the hope that it will be useful,
   but WITHOUT ANY WARRANTY; without even the implied warranty of
   MERCHANTABILITY or FITNESS FOR A PARTICULAR PURPOSE.  See the
   GNU Lesser General Public License for more details.
   
   Cite this work as:
   * C. Bannwarth, E. Caldeweyher, S. Ehlert, A. Hansen, P. Pracht,
     J. Seibert, S. Spicher, S. Grimme, WIREs Comput. Mol. Sci., 2020, 11,
     e01493. DOI: 10.1002/wcms.1493
   
   for GFN2-xTB:
   * C. Bannwarth, S. Ehlert and S. Grimme., J. Chem. Theory Comput., 2019,
     15, 1652-1671. DOI: 10.1021/acs.jctc.8b01176
   for GFN1-xTB:
   * S. Grimme, C. Bannwarth, P. Shushkov, J. Chem. Theory Comput., 2017,
     13, 1989-2009. DOI: 10.1021/acs.jctc.7b00118
   for GFN0-xTB:
   * P. Pracht, E. Caldeweyher, S. Ehlert, S. Grimme, ChemRxiv, 2019, preprint.
     DOI: 10.26434/chemrxiv.8326202.v1
   for GFN-FF:
   * S. Spicher and S. Grimme, Angew. Chem. Int. Ed., 2020, 59, 15665-15673.
     DOI: 10.1002/anie.202004239
   
   for ALPB and GBSA implicit solvation:
   * S. Ehlert, M. Stahn, S. Spicher, S. Grimme, J. Chem. Theory Comput.,
     2021, 17, 4250-4261. DOI: 10.1021/acs.jctc.1c00471
   
   for DFT-D4:
   * E. Caldeweyher, C. Bannwarth and S. Grimme, J. Chem. Phys., 2017,
     147, 034112. DOI: 10.1063/1.4993215
   * E. Caldeweyher, S. Ehlert, A. Hansen, H. Neugebauer, S. Spicher,
     C. Bannwarth and S. Grimme, J. Chem. Phys., 2019, 150, 154122.
     DOI: 10.1063/1.5090222
   * E. Caldeweyher, J.-M. Mewes, S. Ehlert and S. Grimme, Phys. Chem. Chem. Phys.
     2020, 22, 8499-8512. DOI: 10.1039/D0CP00502A
   
   for sTDA-xTB:
   * S. Grimme and C. Bannwarth, J. Chem. Phys., 2016, 145, 054103.
     DOI: 10.1063/1.4959605
   
   in the mass-spec context:
   * V. Asgeirsson, C. Bauer and S. Grimme, Chem. Sci., 2017, 8, 4879.
     DOI: 10.1039/c7sc00601b
   * J. Koopman and S. Grimme, ACS Omega 2019, 4, 12, 15120-15133.
     DOI: 10.1021/acsomega.9b02011
   
   for metadynamics refer to:
   * S. Grimme, J. Chem. Theory Comput., 2019, 155, 2847-2862
     DOI: 10.1021/acs.jctc.9b00143
   
   for SPH calculations refer to:
   * S. Spicher and S. Grimme, J. Chem. Theory Comput., 2021, 17, 1701-1714
     DOI: 10.1021/acs.jctc.0c01306
   
   with help from (in alphabetical order)
   P. Atkinson, C. Bannwarth, F. Bohle, G. Brandenburg, E. Caldeweyher
   M. Checinski, S. Dohm, S. Ehlert, S. Ehrlich, I. Gerasimov, C. Hölzer
   A. Katbashev, J. Koopman, C. Lavigne, S. Lehtola, F. März, M. Müller,
   F. Musil, H. Neugebauer, J. Pisarek, C. Plett, P. Pracht, F. Pultar,
   J. Seibert, P. Shushkov, S. Spicher, M. Stahn, M. Steiner, T. Strunk,
   J. Stückrath, T. Rose, and J. Unsleber
   
 * started run on 2022/09/20 at 15:10:42.334     

           -------------------------------------------------
          |                Calculation Setup                |
           -------------------------------------------------

          program call               : /ihome/jkeith/amm503/codes/xtb-6.5.1/bin/xtb ./50h2o.pm.xyz --opt normal --gfn 2 --charge 0 --cycles 500
          hostname                   : smp-n25
          coordinate file            : ./50h2o.pm.xyz
          omp threads                :                     8

   ID    Z sym.   atoms
    1    8 O      1, 4, 7, 10, 13, 16, 19, 22, 25, 28, 31, 34, 37, 40, 43,
                  46, 49, 52, 55, 58, 61, 64, 67, 70, 73, 76, 79, 82, 85, 88,
                  91, 94, 97, 100, 103, 106, 109, 112, 115, 118, 121, 124,
                  127, 130, 133, 136, 139, 142, 145, 148
    2    1 H      2, 3, 5, 6, 8, 9, 11, 12, 14, 15, 17, 18, 20, 21, 23, 24,
                  26, 27, 29, 30, 32, 33, 35, 36, 38, 39, 41, 42, 44, 45, 47,
                  48, 50, 51, 53, 54, 56, 57, 59, 60, 62, 63, 65, 66, 68, 69,
                  71, 72, 74, 75, 77, 78, 80, 81, 83, 84, 86, 87, 89, 90, 92,
                  93, 95, 96, 98, 99, 101, 102, 104, 105, 107, 108, 110, 111,
                  113, 114, 116, 117, 119, 120, 122, 123, 125, 126, 128, 129,
                  131, 132, 134, 135, 137, 138, 140, 141, 143, 144, 146, 147,
                  149, 150

molecular fragmentation (1/2 indicates fragments):
111222222222222222222222222222222222222222222222222222222222222222222222
222222222222222222222222222222222222222222222222222222222222222222222222
222222
# atoms in fragment 1/2:     3   147
 fragment masses (1/2) :       18.02      882.75
CMA distance (Bohr)    :   5.842
constraining FC (au)   :  0.0500

           -------------------------------------------------
          |                 G F N 2 - x T B                 |
           -------------------------------------------------

        Reference                      10.1021/acs.jctc.8b01176
      * Hamiltonian:
        H0-scaling (s, p, d)           1.850000    2.230000    2.230000
        zeta-weighting                 0.500000
      * Dispersion:
        s8                             2.700000
        a1                             0.520000
        a2                             5.000000
        s9                             5.000000
      * Repulsion:
        kExp                           1.500000    1.000000
        rExp                           1.000000
      * Coulomb:
        alpha                          2.000000
        third order                    shell-resolved
        anisotropic                    true
        a3                             3.000000
        a5                             4.000000
        cn-shift                       1.200000
        cn-exp                         4.000000
        max-rad                        5.000000


          ...................................................
          :                      SETUP                      :
          :.................................................:
          :  # basis functions                 300          :
          :  # atomic orbitals                 300          :
          :  # shells                          200          :
          :  # electrons                       400          :
          :  max. iterations                   250          :
          :  Hamiltonian                  GFN2-xTB          :
          :  restarted?                      false          :
          :  GBSA solvation                  false          :
          :  PC potential                    false          :
          :  electronic temp.          300.0000000     K    :
          :  accuracy                    1.0000000          :
          :  -> integral cutoff          0.2500000E+02      :
          :  -> integral neglect         0.1000000E-07      :
          :  -> SCF convergence          0.1000000E-05 Eh   :
          :  -> wf. convergence          0.1000000E-03 e    :
          :  Broyden damping             0.4000000          :
          ...................................................

 iter      E             dE          RMSdq      gap      omega  full diag
   1   -255.1740479 -0.255174E+03  0.422E+00    9.64       0.0  T
   2   -255.2548429 -0.807950E-01  0.241E+00    8.00       1.0  T
   3   -255.2688561 -0.140132E-01  0.405E-01    6.20       1.0  T
   4   -255.2721765 -0.332042E-02  0.852E-02    6.57       1.0  T
   5   -255.2723599 -0.183442E-03  0.456E-02    6.42       1.0  T
   6   -255.2724163 -0.563712E-04  0.540E-03    6.47       1.5  T
   7   -255.2724172 -0.873195E-06  0.115E-03    6.47       7.1  T
   8   -255.2724172 -0.195340E-07  0.623E-04    6.47      13.1  T
   9   -255.2724172 -0.120862E-07  0.755E-05    6.47     108.1  T

   *** convergence criteria satisfied after 9 iterations ***

         #    Occupation            Energy/Eh            Energy/eV
      -------------------------------------------------------------
         1        2.0000           -0.7493819             -20.3917
       ...           ...                  ...                  ...
       194        2.0000           -0.3870675             -10.5326
       195        2.0000           -0.3837347             -10.4420
       196        2.0000           -0.3706706             -10.0865
       197        2.0000           -0.3672890              -9.9944
       198        2.0000           -0.3539897              -9.6326
       199        2.0000           -0.3427139              -9.3257
       200        2.0000           -0.3358936              -9.1401 (HOMO)
       201                         -0.0979749              -2.6660 (LUMO)
       202                         -0.0586446              -1.5958
       203                         -0.0361052              -0.9825
       204                         -0.0242956              -0.6611
       205                         -0.0053813              -0.1464
       ...                                ...                  ...
       300                          0.3760087              10.2317
      -------------------------------------------------------------
                  HL-Gap            0.2379187 Eh            6.4741 eV
             Fermi-level           -0.2169342 Eh           -5.9031 eV

 SCC (total)                   0 d,  0 h,  0 min,  0.175 sec
 SCC setup                      ...        0 min,  0.001 sec (  0.501%)
 Dispersion                     ...        0 min,  0.003 sec (  1.769%)
 classical contributions        ...        0 min,  0.000 sec (  0.144%)
 integral evaluation            ...        0 min,  0.011 sec (  6.377%)
 iterations                     ...        0 min,  0.107 sec ( 60.760%)
 molecular gradient             ...        0 min,  0.052 sec ( 29.907%)
 printout                       ...        0 min,  0.001 sec (  0.496%)

         :::::::::::::::::::::::::::::::::::::::::::::::::::::
         ::                     SUMMARY                     ::
         :::::::::::::::::::::::::::::::::::::::::::::::::::::
         :: total energy            -253.585934933030 Eh    ::
         :: gradient norm              0.169765271819 Eh/a0 ::
         :: HOMO-LUMO gap              6.474098141875 eV    ::
         ::.................................................::
         :: SCC energy              -255.272417214571 Eh    ::
         :: -> isotropic ES            1.536963555372 Eh    ::
         :: -> anisotropic ES          0.020252906118 Eh    ::
         :: -> anisotropic XC         -0.033712873160 Eh    ::
         :: -> dispersion             -0.096008955713 Eh    ::
         :: repulsion energy           1.677340244744 Eh    ::
         :: add. restraining           0.000000000000 Eh    ::
         :: total charge              -0.000000000000 e     ::
         :::::::::::::::::::::::::::::::::::::::::::::::::::::

      ----------------------------------------------------------- 
     |                   =====================                   |
     |                        A N C O P T                        |
     |                   =====================                   |
     |               Approximate Normal Coordinate               |
     |                Rational Function Optimizer                |
      ----------------------------------------------------------- 

          ...................................................
          :                      SETUP                      :
          :.................................................:
          :   optimization level            normal          :
          :   max. optcycles                   500          :
          :   ANC micro-cycles                  20          :
          :   degrees of freedom               444          :
          :.................................................:
          :   RF solver                   davidson          :
          :   write xtbopt.log                true          :
          :   linear?                        false          :
          :   energy convergence         0.5000000E-05 Eh   :
          :   grad. convergence          0.1000000E-02 Eh/α :
          :   maximium RF displ.         1.0000000          :
          :   Hlow (freq-cutoff)         0.1000000E-01      :
          :   Hmax (freq-cutoff)         5.0000000          :
          :   S6 in model hess.         20.0000000          :
          ...................................................

generating ANC from model Hessian ...
Using Lindh-Hessian (1995)
 Shifting diagonal of input Hessian by   1.054996147637183E-002
 Lowest  eigenvalues of input Hessian
    0.010000    0.010003    0.010105    0.010119    0.010123    0.010211
    0.010232    0.010253    0.010282    0.010306    0.010314    0.010330
    0.010331    0.010356    0.010364    0.010372    0.010389    0.010393
 Highest eigenvalues
    1.410863    1.411408    1.412181    1.416040    1.419626    1.424546
 

........................................................................
.............................. CYCLE    1 ..............................
........................................................................
   1   -255.2724172 -0.255272E+03  0.107E-05    6.47       0.0  T
   2   -255.2724172 -0.144951E-11  0.584E-06    6.47    1398.0  T
   3   -255.2724172 -0.795808E-12  0.157E-06    6.47    5192.7  T
     SCC iter.                  ...        0 min,  0.036 sec
     gradient                   ...        0 min,  0.051 sec
 * total energy  :  -253.5859349 Eh     change       -0.1370779E-09 Eh
   gradient norm :     0.1697671 Eh/α   predicted     0.0000000E+00 (-100.00%)
   displ. norm   :     0.8191335 α      lambda       -0.1104330E+00
   maximum displ.:     0.2715413 α      in ANC's #294, #291, #289, ...

........................................................................
.............................. CYCLE    2 ..............................
........................................................................
   1   -255.3721229 -0.255372E+03  0.208E-01    7.07       0.0  T
   2   -255.3724739 -0.350994E-03  0.121E-01    7.04       1.0  T
   3   -255.3725343 -0.603728E-04  0.268E-02    7.04       1.0  T
   4   -255.3725430 -0.873195E-05  0.356E-03    7.07       2.3  T
   5   -255.3725431 -0.435108E-07  0.793E-04    7.06      10.3  T
   6   -255.3725431 -0.411691E-08  0.189E-04    7.06      43.3  T
     SCC iter.                  ...        0 min,  0.068 sec
     gradient                   ...        0 min,  0.051 sec
 * total energy  :  -253.6792539 Eh     change       -0.9331902E-01 Eh
   gradient norm :     0.1182859 Eh/α   predicted    -0.9227118E-01 (  -1.12%)
   displ. norm   :     0.8287988 α      lambda       -0.8077421E-01
   maximum displ.:     0.2037094 α      in ANC's #289, #273, #291, ...

........................................................................
.............................. CYCLE    3 ..............................
........................................................................
   1   -255.4251212 -0.255425E+03  0.195E-01    7.57       0.0  T
   2   -255.4253588 -0.237605E-03  0.115E-01    7.54       1.0  T
   3   -255.4254068 -0.480467E-04  0.219E-02    7.54       1.0  T
   4   -255.4254136 -0.677736E-05  0.299E-03    7.56       2.7  T
   5   -255.4254136 -0.319338E-07  0.665E-04    7.56      12.3  T
   6   -255.4254136 -0.235235E-08  0.164E-04    7.56      49.7  T
     SCC iter.                  ...        0 min,  0.068 sec
     gradient                   ...        0 min,  0.051 sec
 * total energy  :  -253.7496008 Eh     change       -0.7034682E-01 Eh
   gradient norm :     0.1066569 Eh/α   predicted    -0.6812940E-01 (  -3.15%)
   displ. norm   :     0.8406704 α      lambda       -0.6613056E-01
   maximum displ.:     0.1789528 α      in ANC's #287, #289, #280, ...

........................................................................
.............................. CYCLE    4 ..............................
........................................................................
   1   -255.4761335 -0.255476E+03  0.181E-01    7.94       0.0  T
   2   -255.4763086 -0.175163E-03  0.108E-01    7.93       1.0  T
   3   -255.4763498 -0.412168E-04  0.186E-02    7.94       1.0  T
   4   -255.4763551 -0.528455E-05  0.278E-03    7.96       2.9  T
   5   -255.4763552 -0.284376E-07  0.594E-04    7.96      13.7  T
   6   -255.4763552 -0.188240E-08  0.156E-04    7.96      52.3  T
     SCC iter.                  ...        0 min,  0.067 sec
     gradient                   ...        0 min,  0.051 sec
 * total energy  :  -253.8078284 Eh     change       -0.5822765E-01 Eh
   gradient norm :     0.0937721 Eh/α   predicted    -0.5643344E-01 (  -3.08%)
   displ. norm   :     0.8619472 α      lambda       -0.5799593E-01
   maximum displ.:     0.1947196 α      in ANC's #273, #291, #287, ...

........................................................................
.............................. CYCLE    5 ..............................
........................................................................
   1   -255.5166920 -0.255517E+03  0.189E-01    8.41       0.0  T
   2   -255.5168250 -0.133031E-03  0.115E-01    8.45       1.0  T
   3   -255.5168676 -0.425090E-04  0.154E-02    8.50       1.0  T
   4   -255.5168716 -0.406034E-05  0.308E-03    8.50       2.6  T
   5   -255.5168716 -0.331868E-07  0.572E-04    8.50      14.3  T
   6   -255.5168716 -0.192696E-08  0.163E-04    8.50      49.9  T
     SCC iter.                  ...        0 min,  0.067 sec
     gradient                   ...        0 min,  0.051 sec
 * total energy  :  -253.8556767 Eh     change       -0.4784826E-01 Eh
   gradient norm :     0.1055427 Eh/α   predicted    -0.5054288E-01 (   5.63%)
   displ. norm   :     0.8776137 α      lambda       -0.6103354E-01
   maximum displ.:     0.1816901 α      in ANC's #287, #289, #254, ...

........................................................................
.............................. CYCLE    6 ..............................
........................................................................
   1   -255.5897992 -0.255590E+03  0.217E-01    8.75       0.0  T
   2   -255.5900308 -0.231607E-03  0.130E-01    8.73       1.0  T
   3   -255.5900974 -0.666029E-04  0.215E-02    8.74       1.0  T
   4   -255.5901044 -0.701723E-05  0.377E-03    8.75       2.2  T
   5   -255.5901044 -0.564586E-07  0.971E-04    8.75       8.4  T
   6   -255.5901045 -0.467344E-08  0.188E-04    8.75      43.4  T
     SCC iter.                  ...        0 min,  0.068 sec
     gradient                   ...        0 min,  0.051 sec
 * total energy  :  -253.8955865 Eh     change       -0.3990980E-01 Eh
   gradient norm :     0.1148480 Eh/α   predicted    -0.5402100E-01 (  35.36%)
   displ. norm   :     0.8045289 α      lambda       -0.4888452E-01
   maximum displ.:     0.2027975 α      in ANC's #269, #254, #283, ...

........................................................................
.............................. CYCLE    7 ..............................
........................................................................
   1   -255.5888243 -0.255589E+03  0.197E-01    8.91       0.0  T
   2   -255.5890002 -0.175874E-03  0.118E-01    8.91       1.0  T
   3   -255.5890525 -0.523545E-04  0.184E-02    8.91       1.0  T
   4   -255.5890579 -0.531951E-05  0.413E-03    8.92       2.0  T
   5   -255.5890579 -0.593022E-07  0.904E-04    8.92       9.0  T
   6   -255.5890579 -0.524579E-08  0.198E-04    8.92      41.2  T
     SCC iter.                  ...        0 min,  0.069 sec
     gradient                   ...        0 min,  0.051 sec
 * total energy  :  -253.9243572 Eh     change       -0.2877071E-01 Eh
   gradient norm :     0.1459284 Eh/α   predicted    -0.4026295E-01 (  39.94%)
   displ. norm   :     0.7375449 α      lambda       -0.5307309E-01
   maximum displ.:     0.2504407 α      in ANC's #291, #273, #262, ...

........................................................................
.............................. CYCLE    8 ..............................
........................................................................
   1   -255.6340971 -0.255634E+03  0.225E-01    9.25       0.0  T
   2   -255.6345211 -0.424020E-03  0.127E-01    9.33       1.0  T
   3   -255.6345999 -0.788105E-04  0.289E-02    9.33       1.0  T
   4   -255.6346098 -0.983563E-05  0.579E-03    9.32       1.4  T
   5   -255.6346099 -0.114872E-06  0.158E-03    9.32       5.2  T
   6   -255.6346099 -0.169022E-07  0.241E-04    9.32      33.9  T
   7   -255.6346099 -0.163905E-08  0.690E-05    9.32     118.3  T
     SCC iter.                  ...        0 min,  0.077 sec
     gradient                   ...        0 min,  0.051 sec
 * total energy  :  -253.9439516 Eh     change       -0.1959437E-01 Eh
   gradient norm :     0.1492506 Eh/α   predicted    -0.4097175E-01 ( 109.10%)
   displ. norm   :     0.6344967 α      lambda       -0.4569525E-01
   maximum displ.:     0.1370213 α      in ANC's #247, #217, #264, ...

........................................................................
.............................. CYCLE    9 ..............................
........................................................................
   1   -255.5994355 -0.255599E+03  0.182E-01    9.19       0.0  T
   2   -255.5996545 -0.219083E-03  0.106E-01    9.20       1.0  T
   3   -255.5997036 -0.490175E-04  0.209E-02    9.19       1.0  T
   4   -255.5997097 -0.616536E-05  0.468E-03    9.19       1.7  T
   5   -255.5997098 -0.701357E-07  0.736E-04    9.19      11.1  T
   6   -255.5997098 -0.684668E-08  0.184E-04    9.19      44.3  T
     SCC iter.                  ...        0 min,  0.067 sec
     gradient                   ...        0 min,  0.051 sec
 * total energy  :  -253.9654781 Eh     change       -0.2152651E-01 Eh
   gradient norm :     0.1360757 Eh/α   predicted    -0.3204580E-01 (  48.87%)
   displ. norm   :     0.7247232 α      lambda       -0.6312098E-01
   maximum displ.:     0.2327416 α      in ANC's #291, #274, #262, ...

........................................................................
.............................. CYCLE   10 ..............................
........................................................................
   1   -255.7363399 -0.255736E+03  0.316E-01    9.33       0.0  T
   2   -255.7371054 -0.765549E-03  0.180E-01    9.35       1.0  T
   3   -255.7372946 -0.189220E-03  0.380E-02    9.33       1.0  T
   4   -255.7373107 -0.160868E-04  0.623E-03    9.34       1.3  T
   5   -255.7373109 -0.223209E-06  0.226E-03    9.34       3.6  T
   6   -255.7373110 -0.131807E-07  0.434E-04    9.34      18.8  T
   7   -255.7373110 -0.509894E-08  0.613E-05    9.34     133.3  T
     SCC iter.                  ...        0 min,  0.079 sec
     gradient                   ...        0 min,  0.051 sec
 * total energy  :  -253.9383535 Eh     change        0.2712458E-01 Eh
   gradient norm :     0.3333056 Eh/α   predicted    -0.4813678E-01 (-277.47%)
   displ. norm   :     0.4407028 α      lambda       -0.1012605E+00
   maximum displ.:     0.1581847 α      in ANC's #247, #291, #269, ...

........................................................................
.............................. CYCLE   11 ..............................
........................................................................
   1   -255.6806826 -0.255681E+03  0.214E-01    9.40       0.0  T
   2   -255.6810934 -0.410774E-03  0.118E-01    9.41       1.0  T
   3   -255.6811663 -0.729297E-04  0.272E-02    9.41       1.0  T
   4   -255.6811750 -0.871759E-05  0.526E-03    9.41       1.6  T
   5   -255.6811751 -0.771292E-07  0.101E-03    9.41       8.1  T
   6   -255.6811751 -0.178923E-07  0.231E-04    9.41      35.4  T
   7   -255.6811751 -0.126934E-08  0.633E-05    9.41     129.1  T
     SCC iter.                  ...        0 min,  0.078 sec
     gradient                   ...        0 min,  0.051 sec
 * total energy  :  -253.9911424 Eh     change       -0.5278895E-01 Eh
   gradient norm :     0.1022442 Eh/α   predicted    -0.6046359E-01 (  14.54%)
   displ. norm   :     0.8061920 α      lambda       -0.5212849E-01
   maximum displ.:     0.2940307 α      in ANC's #291, #247, #273, ...

........................................................................
.............................. CYCLE   12 ..............................
........................................................................
   1   -255.5805043 -0.255581E+03  0.351E-01    8.83       0.0  T
   2   -255.5818777 -0.137341E-02  0.190E-01    8.78       1.0  T
   3   -255.5820838 -0.206151E-03  0.510E-02    8.75       1.0  T
   4   -255.5821095 -0.256532E-04  0.118E-02    8.75       1.0  T
   5   -255.5821105 -0.107464E-05  0.365E-03    8.75       2.2  T
   6   -255.5821106 -0.840720E-07  0.615E-04    8.75      13.3  T
   7   -255.5821106 -0.118561E-07  0.159E-04    8.75      51.3  T
     SCC iter.                  ...        0 min,  0.078 sec
     gradient                   ...        0 min,  0.051 sec
 * total energy  :  -253.9418093 Eh     change        0.4933311E-01 Eh
   gradient norm :     0.3120576 Eh/α   predicted    -0.4300462E-01 (-187.17%)
   displ. norm   :     0.4596994 α      lambda       -0.1116878E+00
   maximum displ.:     0.2017778 α      in ANC's #247, #257, #291, ...

........................................................................
.............................. CYCLE   13 ..............................
........................................................................
   1   -255.6823586 -0.255682E+03  0.233E-01    9.37       0.0  T
   2   -255.6828971 -0.538564E-03  0.128E-01    9.39       1.0  T
   3   -255.6829901 -0.929285E-04  0.312E-02    9.40       1.0  T
   4   -255.6830016 -0.115485E-04  0.621E-03    9.40       1.3  T
   5   -255.6830017 -0.101889E-06  0.104E-03    9.40       7.8  T
   6   -255.6830017 -0.990960E-08  0.239E-04    9.40      34.2  T
   7   -255.6830017 -0.128293E-08  0.603E-05    9.40     135.3  T
     SCC iter.                  ...        0 min,  0.078 sec
     gradient                   ...        0 min,  0.051 sec
 * total energy  :  -254.0092815 Eh     change       -0.6747214E-01 Eh
   gradient norm :     0.1025203 Eh/α   predicted    -0.6764506E-01 (   0.26%)
   displ. norm   :     0.7682238 α      lambda       -0.4629006E-01
   maximum displ.:     0.1874826 α      in ANC's #273, #274, #191, ...

........................................................................
.............................. CYCLE   14 ..............................
........................................................................
   1   -255.6176171 -0.255618E+03  0.270E-01    9.00       0.0  T
   2   -255.6181761 -0.559054E-03  0.154E-01    9.03       1.0  T
   3   -255.6183114 -0.135274E-03  0.333E-02    9.03       1.0  T
   4   -255.6183270 -0.155679E-04  0.860E-03    9.02       1.0  T
   5   -255.6183273 -0.358465E-06  0.229E-03    9.02       3.6  T
   6   -255.6183274 -0.441362E-07  0.328E-04    9.02      24.9  T
   7   -255.6183274 -0.220555E-08  0.125E-04    9.02      65.4  T
     SCC iter.                  ...        0 min,  0.077 sec
     gradient                   ...        0 min,  0.051 sec
 * total energy  :  -253.9868526 Eh     change        0.2242887E-01 Eh
   gradient norm :     0.2651594 Eh/α   predicted    -0.3680451E-01 (-264.09%)
   displ. norm   :     0.4618457 α      lambda       -0.7979762E-01
   maximum displ.:     0.1409473 α      in ANC's #289, #290, #279, ...

........................................................................
.............................. CYCLE   15 ..............................
........................................................................
   1   -255.7021368 -0.255702E+03  0.192E-01    9.48       0.0  T
   2   -255.7024299 -0.293079E-03  0.109E-01    9.46       1.0  T
   3   -255.7024980 -0.681466E-04  0.239E-02    9.46       1.0  T
   4   -255.7025058 -0.780798E-05  0.546E-03    9.47       1.5  T
   5   -255.7025059 -0.916670E-07  0.957E-04    9.47       8.5  T
   6   -255.7025059 -0.465451E-08  0.188E-04    9.47      43.5  T
     SCC iter.                  ...        0 min,  0.067 sec
     gradient                   ...        0 min,  0.051 sec
 * total energy  :  -254.0300213 Eh     change       -0.4316868E-01 Eh
   gradient norm :     0.1015384 Eh/α   predicted    -0.4840930E-01 (  12.14%)
   displ. norm   :     0.7353625 α      lambda       -0.4349783E-01
   maximum displ.:     0.2383483 α      in ANC's #282, #226, #273, ...

........................................................................
.............................. CYCLE   16 ..............................
........................................................................
   1   -255.7299409 -0.255730E+03  0.275E-01    9.35       0.0  T
   2   -255.7305393 -0.598321E-03  0.157E-01    9.32       1.0  T
   3   -255.7306877 -0.148451E-03  0.335E-02    9.31       1.0  T
   4   -255.7307022 -0.144606E-04  0.714E-03    9.31       1.1  T
   5   -255.7307025 -0.298462E-06  0.233E-03    9.31       3.5  T
   6   -255.7307025 -0.190778E-07  0.412E-04    9.31      19.8  T
   7   -255.7307025 -0.388516E-08  0.111E-04    9.31      73.7  T
     SCC iter.                  ...        0 min,  0.078 sec
     gradient                   ...        0 min,  0.051 sec
 * total energy  :  -254.0005310 Eh     change        0.2949022E-01 Eh
   gradient norm :     0.2887147 Eh/α   predicted    -0.3350984E-01 (-213.63%)
   displ. norm   :     0.4472305 α      lambda       -0.8397285E-01
   maximum displ.:     0.2267242 α      in ANC's #282, #266, #283, ...

........................................................................
.............................. CYCLE   17 ..............................
........................................................................
   1   -255.6974979 -0.255697E+03  0.216E-01    9.39       0.0  T
   2   -255.6980028 -0.504926E-03  0.117E-01    9.42       1.0  T
   3   -255.6980827 -0.798934E-04  0.294E-02    9.43       1.0  T
   4   -255.6980922 -0.951328E-05  0.570E-03    9.43       1.4  T
   5   -255.6980923 -0.655702E-07  0.110E-03    9.43       7.4  T
   6   -255.6980923 -0.224605E-07  0.190E-04    9.43      43.0  T
   7   -255.6980923 -0.800384E-09  0.565E-05    9.43     144.6  T
     SCC iter.                  ...        0 min,  0.079 sec
     gradient                   ...        0 min,  0.051 sec
 * total energy  :  -254.0423565 Eh     change       -0.4182544E-01 Eh
   gradient norm :     0.1226884 Eh/α   predicted    -0.5038435E-01 (  20.46%)
   displ. norm   :     0.7416060 α      lambda       -0.6050113E-01
   maximum displ.:     0.2205454 α      in ANC's #289, #226, #283, ...

........................................................................
.............................. CYCLE   18 ..............................
........................................................................
   1   -255.7087159 -0.255709E+03  0.317E-01    9.35       0.0  T
   2   -255.7095233 -0.807432E-03  0.180E-01    9.34       1.0  T
   3   -255.7097050 -0.181662E-03  0.389E-02    9.33       1.0  T
   4   -255.7097240 -0.190615E-04  0.903E-03    9.34       1.0  T
   5   -255.7097245 -0.485857E-06  0.286E-03    9.34       2.9  T
   6   -255.7097245 -0.293213E-07  0.472E-04    9.34      17.3  T
   7   -255.7097245 -0.534746E-08  0.124E-04    9.34      65.6  T
     SCC iter.                  ...        0 min,  0.079 sec
     gradient                   ...        0 min,  0.051 sec
 * total energy  :  -254.0014043 Eh     change        0.4095217E-01 Eh
   gradient norm :     0.3232355 Eh/α   predicted    -0.4688777E-01 (-214.49%)
   displ. norm   :     0.4422199 α      lambda       -0.1043568E+00
   maximum displ.:     0.1697868 α      in ANC's #289, #283, #231, ...

........................................................................
.............................. CYCLE   19 ..............................
........................................................................
   1   -255.7244978 -0.255724E+03  0.207E-01    9.40       0.0  T
   2   -255.7248563 -0.358457E-03  0.116E-01    9.39       1.0  T
   3   -255.7249300 -0.737237E-04  0.255E-02    9.39       1.0  T
   4   -255.7249391 -0.909975E-05  0.604E-03    9.39       1.4  T
   5   -255.7249392 -0.140164E-06  0.913E-04    9.39       8.9  T
   6   -255.7249392 -0.152743E-07  0.223E-04    9.39      36.6  T
     SCC iter.                  ...        0 min,  0.067 sec
     gradient                   ...        0 min,  0.051 sec
 * total energy  :  -254.0525606 Eh     change       -0.5115627E-01 Eh
   gradient norm :     0.1270528 Eh/α   predicted    -0.6238239E-01 (  21.94%)
   displ. norm   :     0.8012848 α      lambda       -0.6920251E-01
   maximum displ.:     0.1976113 α      in ANC's #216, #291, #269, ...

........................................................................
.............................. CYCLE   20 ..............................
........................................................................
   1   -255.6747161 -0.255675E+03  0.324E-01    9.14       0.0  T
   2   -255.6757221 -0.100594E-02  0.182E-01    9.17       1.0  T
   3   -255.6759372 -0.215127E-03  0.442E-02    9.18       1.0  T
   4   -255.6759635 -0.262727E-04  0.124E-02    9.17       1.0  T
   5   -255.6759645 -0.105410E-05  0.340E-03    9.17       2.4  T
   6   -255.6759646 -0.115814E-06  0.524E-04    9.17      15.6  T
   7   -255.6759646 -0.695363E-08  0.171E-04    9.17      47.7  T
     SCC iter.                  ...        0 min,  0.078 sec
     gradient                   ...        0 min,  0.051 sec
 * total energy  :  -254.0000336 Eh     change        0.5252696E-01 Eh
   gradient norm :     0.3337679 Eh/α   predicted    -0.5681725E-01 (-208.17%)
   displ. norm   :     0.4374065 α      lambda       -0.1141920E+00
   maximum displ.:     0.1319189 α      in ANC's #291, #290, #288, ...
 * RMSD in coord.:     0.6671181 α      energy gain  -0.4140987E+00 Eh

generating ANC from model Hessian ...
Using Lindh-Hessian (1995)
 Shifting diagonal of input Hessian by   1.603192151844860E-002
 Lowest  eigenvalues of input Hessian
    0.010000    0.015494    0.015557    0.015607    0.015673    0.015700
    0.015808    0.015815    0.015832    0.015837    0.015846    0.015857
    0.015886    0.015890    0.015893    0.015905    0.015915    0.015918
 Highest eigenvalues
    1.458618    1.461629    1.467730    1.468175    1.469391    1.500393
 

........................................................................
.............................. CYCLE   21 ..............................
........................................................................
   1   -255.7142474 -0.255714E+03  0.217E-01    9.41       0.0  T
   2   -255.7146590 -0.411613E-03  0.122E-01    9.39       1.0  T
   3   -255.7147490 -0.900390E-04  0.278E-02    9.38       1.0  T
   4   -255.7147599 -0.108468E-04  0.653E-03    9.39       1.2  T
   5   -255.7147600 -0.158886E-06  0.785E-04    9.38      10.4  T
   6   -255.7147600 -0.535010E-08  0.227E-04    9.38      36.0  T
     SCC iter.                  ...        0 min,  0.068 sec
     gradient                   ...        0 min,  0.051 sec
 * total energy  :  -254.0649723 Eh     change       -0.6493871E-01 Eh
   gradient norm :     0.1100240 Eh/α   predicted     0.0000000E+00 (-100.00%)
   displ. norm   :     0.6005703 α      lambda       -0.2540380E-01
   maximum displ.:     0.1153565 α      in ANC's #249, #219, #159, ...

........................................................................
.............................. CYCLE   22 ..............................
........................................................................
   1   -255.7441848 -0.255744E+03  0.114E-01    9.49       0.0  T
   2   -255.7442203 -0.354867E-04  0.701E-02    9.49       1.0  T
   3   -255.7442360 -0.156843E-04  0.745E-03    9.49       1.1  T
   4   -255.7442369 -0.873677E-06  0.222E-03    9.49       3.7  T
   5   -255.7442369 -0.220057E-07  0.276E-04    9.49      29.6  T
   6   -255.7442369 -0.704148E-09  0.110E-04    9.49      74.5  T
     SCC iter.                  ...        0 min,  0.067 sec
     gradient                   ...        0 min,  0.051 sec
 * total energy  :  -254.0862455 Eh     change       -0.2127317E-01 Eh
   gradient norm :     0.0464247 Eh/α   predicted    -0.1728724E-01 ( -18.74%)
   displ. norm   :     0.8055381 α      lambda       -0.2202646E-01
   maximum displ.:     0.1409148 α      in ANC's #219, #6, #191, ...

........................................................................
.............................. CYCLE   23 ..............................
........................................................................
   1   -255.7532248 -0.255753E+03  0.129E-01    9.52       0.0  T
   2   -255.7532659 -0.411257E-04  0.794E-02    9.51       1.0  T
   3   -255.7532843 -0.184355E-04  0.789E-03    9.50       1.0  T
   4   -255.7532854 -0.102066E-05  0.241E-03    9.50       3.4  T
   5   -255.7532854 -0.276154E-07  0.315E-04    9.50      25.9  T
   6   -255.7532854 -0.936609E-09  0.121E-04    9.50      67.2  T
     SCC iter.                  ...        0 min,  0.067 sec
     gradient                   ...        0 min,  0.051 sec
 * total energy  :  -254.1045250 Eh     change       -0.1827945E-01 Eh
   gradient norm :     0.0523488 Eh/α   predicted    -0.1816160E-01 (  -0.64%)
   displ. norm   :     0.8289402 α      lambda       -0.1793600E-01
   maximum displ.:     0.1640610 α      in ANC's #219, #150, #191, ...

........................................................................
.............................. CYCLE   24 ..............................
........................................................................
   1   -255.7530495 -0.255753E+03  0.114E-01    9.48       0.0  T
   2   -255.7530753 -0.258190E-04  0.703E-02    9.47       1.0  T
   3   -255.7530876 -0.123027E-04  0.618E-03    9.46       1.3  T
   4   -255.7530882 -0.606482E-06  0.194E-03    9.47       4.2  T
   5   -255.7530882 -0.222112E-07  0.273E-04    9.47      29.9  T
   6   -255.7530882 -0.728448E-09  0.108E-04    9.47      75.5  T
     SCC iter.                  ...        0 min,  0.069 sec
     gradient                   ...        0 min,  0.051 sec
 * total energy  :  -254.1209731 Eh     change       -0.1644816E-01 Eh
   gradient norm :     0.0636562 Eh/α   predicted    -0.1513036E-01 (  -8.01%)
   displ. norm   :     0.8731297 α      lambda       -0.1934236E-01
   maximum displ.:     0.1561695 α      in ANC's #150, #219, #191, ...

........................................................................
.............................. CYCLE   25 ..............................
........................................................................
   1   -255.7640252 -0.255764E+03  0.110E-01    9.43       0.0  T
   2   -255.7640561 -0.309237E-04  0.671E-02    9.41       1.0  T
   3   -255.7640675 -0.113604E-04  0.716E-03    9.40       1.1  T
   4   -255.7640684 -0.963347E-06  0.203E-03    9.40       4.0  T
   5   -255.7640685 -0.231496E-07  0.311E-04    9.40      26.3  T
   6   -255.7640685 -0.876895E-09  0.114E-04    9.40      71.8  T
     SCC iter.                  ...        0 min,  0.068 sec
     gradient                   ...        0 min,  0.051 sec
 * total energy  :  -254.1380688 Eh     change       -0.1709566E-01 Eh
   gradient norm :     0.0508667 Eh/α   predicted    -0.1704406E-01 (  -0.30%)
   displ. norm   :     0.8593112 α      lambda       -0.1907410E-01
   maximum displ.:     0.1556323 α      in ANC's #50, #127, #60, ...

........................................................................
.............................. CYCLE   26 ..............................
........................................................................
   1   -255.7951349 -0.255795E+03  0.116E-01    9.49       0.0  T
   2   -255.7951790 -0.440425E-04  0.702E-02    9.48       1.0  T
   3   -255.7951928 -0.138015E-04  0.870E-03    9.48       1.0  T
   4   -255.7951942 -0.140055E-05  0.214E-03    9.48       3.8  T
   5   -255.7951942 -0.189574E-07  0.362E-04    9.48      22.6  T
   6   -255.7951942 -0.992117E-09  0.116E-04    9.48      70.3  T
     SCC iter.                  ...        0 min,  0.067 sec
     gradient                   ...        0 min,  0.051 sec
 * total energy  :  -254.1531163 Eh     change       -0.1504754E-01 Eh
   gradient norm :     0.0525367 Eh/α   predicted    -0.1657939E-01 (  10.18%)
   displ. norm   :     0.8499248 α      lambda       -0.1787308E-01
   maximum displ.:     0.1600555 α      in ANC's #50, #60, #150, ...

........................................................................
.............................. CYCLE   27 ..............................
........................................................................
   1   -255.8093843 -0.255809E+03  0.114E-01    9.47       0.0  T
   2   -255.8094245 -0.402010E-04  0.697E-02    9.45       1.0  T
   3   -255.8094397 -0.151266E-04  0.826E-03    9.43       1.0  T
   4   -255.8094409 -0.118580E-05  0.229E-03    9.43       3.6  T
   5   -255.8094409 -0.258278E-07  0.340E-04    9.43      24.0  T
   6   -255.8094409 -0.980123E-09  0.125E-04    9.43      65.1  T
     SCC iter.                  ...        0 min,  0.068 sec
     gradient                   ...        0 min,  0.051 sec
 * total energy  :  -254.1672596 Eh     change       -0.1414332E-01 Eh
   gradient norm :     0.0459423 Eh/α   predicted    -0.1539206E-01 (   8.83%)
   displ. norm   :     0.8638339 α      lambda       -0.1644041E-01
   maximum displ.:     0.1625405 α      in ANC's #50, #60, #69, ...

........................................................................
.............................. CYCLE   28 ..............................
........................................................................
   1   -255.7955100 -0.255796E+03  0.124E-01    9.44       0.0  T
   2   -255.7955608 -0.508620E-04  0.752E-02    9.44       1.0  T
   3   -255.7955783 -0.174240E-04  0.943E-03    9.44       1.0  T
   4   -255.7955798 -0.156901E-05  0.253E-03    9.44       3.2  T
   5   -255.7955799 -0.290858E-07  0.369E-04    9.44      22.1  T
   6   -255.7955799 -0.117782E-08  0.131E-04    9.44      62.5  T
     SCC iter.                  ...        0 min,  0.067 sec
     gradient                   ...        0 min,  0.051 sec
 * total energy  :  -254.1776990 Eh     change       -0.1043934E-01 Eh
   gradient norm :     0.0755064 Eh/α   predicted    -0.1435420E-01 (  37.50%)
   displ. norm   :     0.7334632 α      lambda       -0.1758524E-01
   maximum displ.:     0.1504913 α      in ANC's #50, #60, #69, ...

........................................................................
.............................. CYCLE   29 ..............................
........................................................................
   1   -255.8266702 -0.255827E+03  0.109E-01    9.48       0.0  T
   2   -255.8267317 -0.614267E-04  0.649E-02    9.47       1.0  T
   3   -255.8267493 -0.176097E-04  0.107E-02    9.46       1.0  T
   4   -255.8267512 -0.189987E-05  0.266E-03    9.47       3.1  T
   5   -255.8267512 -0.334881E-07  0.380E-04    9.47      21.5  T
   6   -255.8267512 -0.137959E-08  0.128E-04    9.47      63.6  T
     SCC iter.                  ...        0 min,  0.067 sec
     gradient                   ...        0 min,  0.051 sec
 * total energy  :  -254.1872040 Eh     change       -0.9504999E-02 Eh
   gradient norm :     0.0801974 Eh/α   predicted    -0.1352277E-01 (  42.27%)
   displ. norm   :     0.7056716 α      lambda       -0.1968646E-01
   maximum displ.:     0.1504483 α      in ANC's #50, #60, #251, ...

........................................................................
.............................. CYCLE   30 ..............................
........................................................................
   1   -255.8208948 -0.255821E+03  0.142E-01    9.36       0.0  T
   2   -255.8210005 -0.105679E-03  0.851E-02    9.35       1.0  T
   3   -255.8210369 -0.364086E-04  0.141E-02    9.34       1.0  T
   4   -255.8210400 -0.314705E-05  0.412E-03    9.35       2.0  T
   5   -255.8210401 -0.792537E-07  0.503E-04    9.35      16.2  T
   6   -255.8210401 -0.303342E-08  0.190E-04    9.35      43.0  T
     SCC iter.                  ...        0 min,  0.067 sec
     gradient                   ...        0 min,  0.051 sec
 * total energy  :  -254.1890951 Eh     change       -0.1891168E-02 Eh
   gradient norm :     0.1205277 Eh/α   predicted    -0.1474490E-01 ( 679.67%)
   displ. norm   :     0.5235999 α      lambda       -0.2556789E-01
   maximum displ.:     0.0936758 α      in ANC's #140, #50, #84, ...

........................................................................
.............................. CYCLE   31 ..............................
........................................................................
   1   -255.8316657 -0.255832E+03  0.129E-01    9.43       0.0  T
   2   -255.8317548 -0.890383E-04  0.767E-02    9.43       1.0  T
   3   -255.8317843 -0.295387E-04  0.130E-02    9.44       1.0  T
   4   -255.8317869 -0.261512E-05  0.365E-03    9.44       2.2  T
   5   -255.8317870 -0.602037E-07  0.430E-04    9.44      19.0  T
   6   -255.8317870 -0.187663E-08  0.159E-04    9.44      51.2  T
     SCC iter.                  ...        0 min,  0.068 sec
     gradient                   ...        0 min,  0.051 sec
 * total energy  :  -254.1991027 Eh     change       -0.1000753E-01 Eh
   gradient norm :     0.0919067 Eh/α   predicted    -0.1628876E-01 (  62.77%)
   displ. norm   :     0.6780290 α      lambda       -0.2829397E-01
   maximum displ.:     0.1360044 α      in ANC's #98, #249, #84, ...

........................................................................
.............................. CYCLE   32 ..............................
........................................................................
   1   -255.8607141 -0.255861E+03  0.205E-01    9.52       0.0  T
   2   -255.8609569 -0.242783E-03  0.122E-01    9.54       1.0  T
   3   -255.8610350 -0.780660E-04  0.215E-02    9.53       1.0  T
   4   -255.8610422 -0.722024E-05  0.539E-03    9.52       1.5  T
   5   -255.8610423 -0.155472E-06  0.958E-04    9.52       8.5  T
   6   -255.8610423 -0.859464E-08  0.262E-04    9.52      31.1  T
     SCC iter.                  ...        0 min,  0.067 sec
     gradient                   ...        0 min,  0.051 sec
 * total energy  :  -254.1832025 Eh     change        0.1590017E-01 Eh
   gradient norm :     0.2315889 Eh/α   predicted    -0.2065069E-01 (-229.88%)
   displ. norm   :     0.4192561 α      lambda       -0.5056224E-01
   maximum displ.:     0.0805218 α      in ANC's #285, #101, #253, ...

........................................................................
.............................. CYCLE   33 ..............................
........................................................................
   1   -255.8130379 -0.255813E+03  0.142E-01    9.34       0.0  T
   2   -255.8131632 -0.125301E-03  0.842E-02    9.33       1.0  T
   3   -255.8132045 -0.412390E-04  0.153E-02    9.32       1.0  T
   4   -255.8132083 -0.379095E-05  0.434E-03    9.32       1.9  T
   5   -255.8132084 -0.109322E-06  0.530E-04    9.32      15.4  T
   6   -255.8132084 -0.415375E-08  0.201E-04    9.32      40.7  T
     SCC iter.                  ...        0 min,  0.068 sec
     gradient                   ...        0 min,  0.051 sec
 * total energy  :  -254.2056352 Eh     change       -0.2243273E-01 Eh
   gradient norm :     0.0959399 Eh/α   predicted    -0.2972493E-01 (  32.51%)
   displ. norm   :     0.6898220 α      lambda       -0.3371294E-01
   maximum displ.:     0.1670531 α      in ANC's #218, #217, #214, ...

........................................................................
.............................. CYCLE   34 ..............................
........................................................................
   1   -255.8436365 -0.255844E+03  0.224E-01    9.38       0.0  T
   2   -255.8439163 -0.279836E-03  0.132E-01    9.39       1.0  T
   3   -255.8439962 -0.799054E-04  0.232E-02    9.40       1.0  T
   4   -255.8440045 -0.827051E-05  0.612E-03    9.41       1.3  T
   5   -255.8440046 -0.162581E-06  0.926E-04    9.40       8.8  T
   6   -255.8440046 -0.107879E-07  0.267E-04    9.40      30.6  T
     SCC iter.                  ...        0 min,  0.068 sec
     gradient                   ...        0 min,  0.051 sec
 * total energy  :  -254.1904641 Eh     change        0.1517108E-01 Eh
   gradient norm :     0.1986820 Eh/α   predicted    -0.2487767E-01 (-263.98%)
   displ. norm   :     0.4378394 α      lambda       -0.4906732E-01
   maximum displ.:     0.0810252 α      in ANC's #198, #265, #146, ...

........................................................................
.............................. CYCLE   35 ..............................
........................................................................
   1   -255.8586747 -0.255859E+03  0.159E-01    9.40       0.0  T
   2   -255.8588386 -0.163990E-03  0.930E-02    9.40       1.0  T
   3   -255.8588848 -0.461115E-04  0.178E-02    9.39       1.0  T
   4   -255.8588897 -0.496138E-05  0.450E-03    9.39       1.8  T
   5   -255.8588898 -0.995401E-07  0.641E-04    9.39      12.7  T
   6   -255.8588898 -0.380086E-08  0.185E-04    9.39      44.1  T
     SCC iter.                  ...        0 min,  0.068 sec
     gradient                   ...        0 min,  0.051 sec
 * total energy  :  -254.2108557 Eh     change       -0.2039151E-01 Eh
   gradient norm :     0.1002168 Eh/α   predicted    -0.2923686E-01 (  43.38%)
   displ. norm   :     0.7324114 α      lambda       -0.4252568E-01
   maximum displ.:     0.1783150 α      in ANC's #249, #253, #251, ...

........................................................................
.............................. CYCLE   36 ..............................
........................................................................
   1   -255.7860836 -0.255786E+03  0.246E-01    9.26       0.0  T
   2   -255.7864062 -0.322556E-03  0.147E-01    9.25       1.0  T
   3   -255.7865161 -0.109886E-03  0.243E-02    9.24       1.0  T
   4   -255.7865254 -0.931467E-05  0.686E-03    9.24       1.2  T
   5   -255.7865256 -0.244992E-06  0.106E-03    9.24       7.7  T
   6   -255.7865256 -0.118452E-07  0.330E-04    9.24      24.7  T
   7   -255.7865256 -0.154105E-08  0.908E-05    9.24      89.9  T
     SCC iter.                  ...        0 min,  0.078 sec
     gradient                   ...        0 min,  0.051 sec
 * total energy  :  -254.1854858 Eh     change        0.2536987E-01 Eh
   gradient norm :     0.2523429 Eh/α   predicted    -0.3266878E-01 (-228.77%)
   displ. norm   :     0.3981471 α      lambda       -0.6264970E-01
   maximum displ.:     0.0815974 α      in ANC's #265, #249, #293, ...

........................................................................
.............................. CYCLE   37 ..............................
........................................................................
   1   -255.8199080 -0.255820E+03  0.150E-01    9.33       0.0  T
   2   -255.8200447 -0.136745E-03  0.882E-02    9.33       1.0  T
   3   -255.8200872 -0.425246E-04  0.161E-02    9.33       1.0  T
   4   -255.8200913 -0.407666E-05  0.440E-03    9.33       1.9  T
   5   -255.8200914 -0.999917E-07  0.530E-04    9.33      15.4  T
   6   -255.8200914 -0.308117E-08  0.196E-04    9.33      41.7  T
     SCC iter.                  ...        0 min,  0.068 sec
     gradient                   ...        0 min,  0.051 sec
 * total energy  :  -254.2187802 Eh     change       -0.3329441E-01 Eh
   gradient norm :     0.0694905 Eh/α   predicted    -0.3629060E-01 (   9.00%)
   displ. norm   :     0.7214901 α      lambda       -0.3115173E-01
   maximum displ.:     0.2136350 α      in ANC's #273, #253, #271, ...

........................................................................
.............................. CYCLE   38 ..............................
........................................................................
   1   -255.9219883 -0.255922E+03  0.246E-01    9.53       0.0  T
   2   -255.9223445 -0.356220E-03  0.145E-01    9.56       1.0  T
   3   -255.9224477 -0.103181E-03  0.261E-02    9.52       1.0  T
   4   -255.9224576 -0.993225E-05  0.667E-03    9.52       1.2  T
   5   -255.9224578 -0.184922E-06  0.144E-03    9.52       5.7  T
   6   -255.9224578 -0.165057E-07  0.287E-04    9.52      28.4  T
   7   -255.9224578 -0.148606E-08  0.975E-05    9.52      83.7  T
     SCC iter.                  ...        0 min,  0.080 sec
     gradient                   ...        0 min,  0.051 sec
 * total energy  :  -254.1859953 Eh     change        0.3278489E-01 Eh
   gradient norm :     0.2736290 Eh/α   predicted    -0.2368386E-01 (-172.24%)
   displ. norm   :     0.3846471 α      lambda       -0.7041332E-01
   maximum displ.:     0.0990075 α      in ANC's #273, #98, #225, ...

........................................................................
.............................. CYCLE   39 ..............................
........................................................................
   1   -255.8403389 -0.255840E+03  0.158E-01    9.48       0.0  T
   2   -255.8404965 -0.157575E-03  0.923E-02    9.46       1.0  T
   3   -255.8405406 -0.440429E-04  0.174E-02    9.44       1.0  T
   4   -255.8405450 -0.447357E-05  0.444E-03    9.44       1.8  T
   5   -255.8405451 -0.762499E-07  0.497E-04    9.44      16.4  T
   6   -255.8405451 -0.318991E-08  0.184E-04    9.44      44.5  T
     SCC iter.                  ...        0 min,  0.068 sec
     gradient                   ...        0 min,  0.052 sec
 * total energy  :  -254.2254129 Eh     change       -0.3941761E-01 Eh
   gradient norm :     0.0661322 Eh/α   predicted    -0.4041565E-01 (   2.53%)
   displ. norm   :     0.6577476 α      lambda       -0.2062507E-01
   maximum displ.:     0.1186474 α      in ANC's #184, #217, #50, ...

........................................................................
.............................. CYCLE   40 ..............................
........................................................................
   1   -255.8796052 -0.255880E+03  0.190E-01    9.40       0.0  T
   2   -255.8798063 -0.201106E-03  0.112E-01    9.38       1.0  T
   3   -255.8798662 -0.598547E-04  0.196E-02    9.37       1.0  T
   4   -255.8798721 -0.594057E-05  0.507E-03    9.36       1.6  T
   5   -255.8798722 -0.114528E-06  0.877E-04    9.36       9.3  T
   6   -255.8798722 -0.747022E-08  0.218E-04    9.36      37.5  T
     SCC iter.                  ...        0 min,  0.068 sec
     gradient                   ...        0 min,  0.051 sec
 * total energy  :  -254.2091961 Eh     change        0.1621687E-01 Eh
   gradient norm :     0.2000870 Eh/α   predicted    -0.1477409E-01 (-191.10%)
   displ. norm   :     0.4095858 α      lambda       -0.4425015E-01
   maximum displ.:     0.0894429 α      in ANC's #1, #293, #268, ...

........................................................................
.............................. CYCLE   41 ..............................
........................................................................
   1   -255.8530918 -0.255853E+03  0.144E-01    9.41       0.0  T
   2   -255.8532318 -0.140033E-03  0.837E-02    9.42       1.0  T
   3   -255.8532695 -0.376462E-04  0.165E-02    9.42       1.0  T
   4   -255.8532737 -0.419392E-05  0.418E-03    9.42       2.0  T
   5   -255.8532737 -0.825603E-07  0.487E-04    9.42      16.8  T
   6   -255.8532737 -0.301088E-08  0.175E-04    9.42      46.7  T
     SCC iter.                  ...        0 min,  0.068 sec
     gradient                   ...        0 min,  0.051 sec
 * total energy  :  -254.2315699 Eh     change       -0.2237380E-01 Eh
   gradient norm :     0.0732991 Eh/α   predicted    -0.2583680E-01 (  15.48%)
   displ. norm   :     0.7408315 α      lambda       -0.2918603E-01
   maximum displ.:     0.2144694 α      in ANC's #1, #273, #262, ...

........................................................................
.............................. CYCLE   42 ..............................
........................................................................
   1   -255.8116145 -0.255812E+03  0.249E-01    9.34       0.0  T
   2   -255.8119950 -0.380466E-03  0.147E-01    9.34       1.0  T
   3   -255.8121057 -0.110739E-03  0.269E-02    9.33       1.0  T
   4   -255.8121165 -0.107461E-04  0.736E-03    9.33       1.1  T
   5   -255.8121167 -0.222515E-06  0.140E-03    9.33       5.9  T
   6   -255.8121167 -0.194942E-07  0.313E-04    9.33      26.1  T
   7   -255.8121167 -0.161705E-08  0.106E-04    9.33      77.0  T
     SCC iter.                  ...        0 min,  0.080 sec
     gradient                   ...        0 min,  0.052 sec
 * total energy  :  -254.1940116 Eh     change        0.3755829E-01 Eh
   gradient norm :     0.3166318 Eh/α   predicted    -0.2260214E-01 (-160.18%)
   displ. norm   :     0.3978657 α      lambda       -0.7441112E-01
   maximum displ.:     0.1516078 α      in ANC's #1, #133, #130, ...
 * RMSD in coord.:     0.7309614 α      energy gain  -0.1939780E+00 Eh

generating ANC from model Hessian ...
Using Lindh-Hessian (1995)
 Shifting diagonal of input Hessian by   1.026307008067208E-002
 Lowest  eigenvalues of input Hessian
    0.010000    0.010043    0.010071    0.010080    0.010106    0.010114
    0.010131    0.010151    0.010154    0.010170    0.010189    0.010195
    0.010199    0.010224    0.010231    0.010244    0.010261    0.000000
 Highest eigenvalues
    1.437048    1.441995    1.446155    1.447076    1.459815    1.485906
 

........................................................................
.............................. CYCLE   43 ..............................
........................................................................
   1   -255.8290383 -0.255829E+03  0.155E-01    9.40       0.0  T
   2   -255.8292041 -0.165798E-03  0.906E-02    9.40       1.0  T
   3   -255.8292538 -0.497739E-04  0.180E-02    9.40       1.0  T
   4   -255.8292588 -0.497021E-05  0.480E-03    9.40       1.7  T
   5   -255.8292589 -0.114252E-06  0.568E-04    9.40      14.4  T
   6   -255.8292589 -0.398200E-08  0.216E-04    9.40      37.8  T
     SCC iter.                  ...        0 min,  0.069 sec
     gradient                   ...        0 min,  0.051 sec
 * total energy  :  -254.2350310 Eh     change       -0.4101942E-01 Eh
   gradient norm :     0.0788740 Eh/α   predicted     0.0000000E+00 (-100.00%)
   displ. norm   :     0.5790113 α      lambda       -0.1437753E-01
   maximum displ.:     0.1227176 α      in ANC's #98, #94, #117, ...

........................................................................
.............................. CYCLE   44 ..............................
........................................................................
   1   -255.8520121 -0.255852E+03  0.113E-01    9.46       0.0  T
   2   -255.8520430 -0.308430E-04  0.698E-02    9.46       1.0  T
   3   -255.8520565 -0.134980E-04  0.657E-03    9.46       1.2  T
   4   -255.8520572 -0.694155E-06  0.183E-03    9.46       4.5  T
   5   -255.8520572 -0.127657E-07  0.237E-04    9.46      34.5  T
   6   -255.8520572 -0.463842E-09  0.910E-05    9.46      89.7  T
     SCC iter.                  ...        0 min,  0.068 sec
     gradient                   ...        0 min,  0.052 sec
 * total energy  :  -254.2463549 Eh     change       -0.1132395E-01 Eh
   gradient norm :     0.0392961 Eh/α   predicted    -0.9601104E-02 ( -15.21%)
   displ. norm   :     0.7553348 α      lambda       -0.1231641E-01
   maximum displ.:     0.1578596 α      in ANC's #94, #42, #141, ...

........................................................................
.............................. CYCLE   45 ..............................
........................................................................
   1   -255.8724099 -0.255872E+03  0.107E-01    9.49       0.0  T
   2   -255.8724429 -0.330827E-04  0.655E-02    9.50       1.0  T
   3   -255.8724549 -0.119688E-04  0.735E-03    9.50       1.1  T
   4   -255.8724559 -0.983259E-06  0.201E-03    9.50       4.1  T
   5   -255.8724559 -0.172968E-07  0.272E-04    9.50      30.0  T
   6   -255.8724559 -0.659753E-09  0.103E-04    9.50      79.6  T
     SCC iter.                  ...        0 min,  0.069 sec
     gradient                   ...        0 min,  0.051 sec
 * total energy  :  -254.2556044 Eh     change       -0.9249473E-02 Eh
   gradient norm :     0.0471262 Eh/α   predicted    -0.9671719E-02 (   4.57%)
   displ. norm   :     0.8116363 α      lambda       -0.1118342E-01
   maximum displ.:     0.1668349 α      in ANC's #98, #94, #42, ...

........................................................................
.............................. CYCLE   46 ..............................
........................................................................
   1   -255.8688482 -0.255869E+03  0.121E-01    9.46       0.0  T
   2   -255.8688997 -0.514806E-04  0.738E-02    9.46       1.0  T
   3   -255.8689152 -0.155262E-04  0.930E-03    9.46       1.0  T
   4   -255.8689168 -0.164935E-05  0.241E-03    9.46       3.4  T
   5   -255.8689169 -0.246738E-07  0.363E-04    9.46      22.5  T
   6   -255.8689169 -0.159520E-08  0.124E-04    9.46      66.1  T
     SCC iter.                  ...        0 min,  0.068 sec
     gradient                   ...        0 min,  0.051 sec
 * total energy  :  -254.2629812 Eh     change       -0.7376756E-02 Eh
   gradient norm :     0.0785302 Eh/α   predicted    -0.9275274E-02 (  25.74%)
   displ. norm   :     0.6804556 α      lambda       -0.1350644E-01
   maximum displ.:     0.1307760 α      in ANC's #42, #79, #69, ...

........................................................................
.............................. CYCLE   47 ..............................
........................................................................
   1   -255.8769656 -0.255877E+03  0.935E-02    9.46       0.0  T
   2   -255.8770148 -0.492311E-04  0.556E-02    9.45       1.0  T
   3   -255.8770266 -0.118131E-04  0.960E-03    9.44       1.0  T
   4   -255.8770281 -0.150927E-05  0.204E-03    9.44       4.0  T
   5   -255.8770281 -0.176106E-07  0.317E-04    9.44      25.8  T
   6   -255.8770281 -0.814538E-09  0.107E-04    9.44      76.2  T
     SCC iter.                  ...        0 min,  0.069 sec
     gradient                   ...        0 min,  0.052 sec
 * total energy  :  -254.2721885 Eh     change       -0.9207337E-02 Eh
   gradient norm :     0.0457279 Eh/α   predicted    -0.9880099E-02 (   7.31%)
   displ. norm   :     0.7598201 α      lambda       -0.1266598E-01
   maximum displ.:     0.1602588 α      in ANC's #42, #141, #69, ...

........................................................................
.............................. CYCLE   48 ..............................
........................................................................
   1   -255.8771517 -0.255877E+03  0.108E-01    9.44       0.0  T
   2   -255.8772031 -0.513861E-04  0.655E-02    9.44       1.0  T
   3   -255.8772186 -0.155721E-04  0.944E-03    9.44       1.0  T
   4   -255.8772202 -0.157705E-05  0.222E-03    9.44       3.7  T
   5   -255.8772202 -0.219747E-07  0.358E-04    9.44      22.8  T
   6   -255.8772202 -0.119698E-08  0.125E-04    9.44      65.1  T
     SCC iter.                  ...        0 min,  0.068 sec
     gradient                   ...        0 min,  0.052 sec
 * total energy  :  -254.2806072 Eh     change       -0.8418700E-02 Eh
   gradient norm :     0.0469946 Eh/α   predicted    -0.9989205E-02 (  18.65%)
   displ. norm   :     0.7931779 α      lambda       -0.1169324E-01
   maximum displ.:     0.1738080 α      in ANC's #110, #42, #69, ...

........................................................................
.............................. CYCLE   49 ..............................
........................................................................
   1   -255.8757325 -0.255876E+03  0.974E-02    9.44       0.0  T
   2   -255.8757894 -0.569852E-04  0.587E-02    9.45       1.0  T
   3   -255.8758025 -0.131037E-04  0.989E-03    9.45       1.0  T
   4   -255.8758044 -0.182761E-05  0.215E-03    9.45       3.8  T
   5   -255.8758044 -0.239974E-07  0.342E-04    9.45      23.9  T
   6   -255.8758044 -0.100030E-08  0.125E-04    9.45      65.4  T
     SCC iter.                  ...        0 min,  0.068 sec
     gradient                   ...        0 min,  0.052 sec
 * total energy  :  -254.2890064 Eh     change       -0.8399148E-02 Eh
   gradient norm :     0.0451227 Eh/α   predicted    -0.9524925E-02 (  13.40%)
   displ. norm   :     0.7839220 α      lambda       -0.1099149E-01
   maximum displ.:     0.1621907 α      in ANC's #42, #69, #97, ...

........................................................................
.............................. CYCLE   50 ..............................
........................................................................
   1   -255.8927234 -0.255893E+03  0.103E-01    9.39       0.0  T
   2   -255.8927689 -0.454546E-04  0.623E-02    9.38       1.0  T
   3   -255.8927842 -0.153555E-04  0.889E-03    9.36       1.0  T
   4   -255.8927856 -0.135220E-05  0.235E-03    9.36       3.5  T
   5   -255.8927856 -0.285974E-07  0.373E-04    9.36      21.9  T
   6   -255.8927856 -0.127613E-08  0.127E-04    9.36      64.1  T
     SCC iter.                  ...        0 min,  0.068 sec
     gradient                   ...        0 min,  0.052 sec
 * total energy  :  -254.2929051 Eh     change       -0.3898765E-02 Eh
   gradient norm :     0.0770857 Eh/α   predicted    -0.8873069E-02 ( 127.59%)
   displ. norm   :     0.6109536 α      lambda       -0.1254271E-01
   maximum displ.:     0.1566891 α      in ANC's #110, #42, #94, ...

........................................................................
.............................. CYCLE   51 ..............................
........................................................................
   1   -255.8834925 -0.255883E+03  0.971E-02    9.33       0.0  T
   2   -255.8835583 -0.657414E-04  0.576E-02    9.32       1.0  T
   3   -255.8835734 -0.151771E-04  0.108E-02    9.31       1.0  T
   4   -255.8835754 -0.196370E-05  0.240E-03    9.31       3.4  T
   5   -255.8835754 -0.277482E-07  0.339E-04    9.31      24.1  T
   6   -255.8835754 -0.107994E-08  0.120E-04    9.31      67.9  T
     SCC iter.                  ...        0 min,  0.069 sec
     gradient                   ...        0 min,  0.052 sec
 * total energy  :  -254.2997004 Eh     change       -0.6795277E-02 Eh
   gradient norm :     0.0502079 Eh/α   predicted    -0.8612238E-02 (  26.74%)
   displ. norm   :     0.6555047 α      lambda       -0.1209343E-01
   maximum displ.:     0.1189120 α      in ANC's #42, #273, #162, ...

........................................................................
.............................. CYCLE   52 ..............................
........................................................................
   1   -255.8927909 -0.255893E+03  0.133E-01    9.37       0.0  T
   2   -255.8928960 -0.105082E-03  0.787E-02    9.38       1.0  T
   3   -255.8929261 -0.300621E-04  0.140E-02    9.38       1.0  T
   4   -255.8929292 -0.311720E-05  0.350E-03    9.38       2.3  T
   5   -255.8929293 -0.581487E-07  0.509E-04    9.38      16.0  T
   6   -255.8929293 -0.299505E-08  0.170E-04    9.38      48.0  T
     SCC iter.                  ...        0 min,  0.067 sec
     gradient                   ...        0 min,  0.052 sec
 * total energy  :  -254.2979707 Eh     change        0.1729662E-02 Eh
   gradient norm :     0.1096051 Eh/α   predicted    -0.8644901E-02 (-599.80%)
   displ. norm   :     0.4327034 α      lambda       -0.1742376E-01
   maximum displ.:     0.1014900 α      in ANC's #135, #143, #118, ...

........................................................................
.............................. CYCLE   53 ..............................
........................................................................
   1   -255.9074047 -0.255907E+03  0.977E-02    9.42       0.0  T
   2   -255.9074540 -0.493234E-04  0.582E-02    9.42       1.0  T
   3   -255.9074701 -0.160560E-04  0.969E-03    9.42       1.0  T
   4   -255.9074716 -0.147993E-05  0.254E-03    9.42       3.2  T
   5   -255.9074716 -0.302149E-07  0.315E-04    9.42      25.9  T
   6   -255.9074716 -0.992713E-09  0.114E-04    9.42      71.6  T
     SCC iter.                  ...        0 min,  0.069 sec
     gradient                   ...        0 min,  0.052 sec
 * total energy  :  -254.3069239 Eh     change       -0.8953154E-02 Eh
   gradient norm :     0.0434285 Eh/α   predicted    -0.1034302E-01 (  15.52%)
   displ. norm   :     0.6719452 α      lambda       -0.1086838E-01
   maximum displ.:     0.1188527 α      in ANC's #24, #42, #133, ...

........................................................................
.............................. CYCLE   54 ..............................
........................................................................
   1   -255.8724938 -0.255872E+03  0.137E-01    9.21       0.0  T
   2   -255.8725819 -0.881460E-04  0.825E-02    9.20       1.0  T
   3   -255.8726099 -0.280203E-04  0.125E-02    9.17       1.0  T
   4   -255.8726126 -0.264627E-05  0.332E-03    9.17       2.5  T
   5   -255.8726126 -0.498423E-07  0.471E-04    9.17      17.3  T
   6   -255.8726126 -0.224696E-08  0.165E-04    9.17      49.6  T
     SCC iter.                  ...        0 min,  0.068 sec
     gradient                   ...        0 min,  0.052 sec
 * total energy  :  -254.3041032 Eh     change        0.2820677E-02 Eh
   gradient norm :     0.1057017 Eh/α   predicted    -0.7887788E-02 (-379.64%)
   displ. norm   :     0.4103152 α      lambda       -0.1692780E-01
   maximum displ.:     0.0947289 α      in ANC's #44, #273, #70, ...

........................................................................
.............................. CYCLE   55 ..............................
........................................................................
   1   -255.8998516 -0.255900E+03  0.958E-02    9.28       0.0  T
   2   -255.8999071 -0.555224E-04  0.567E-02    9.28       1.0  T
   3   -255.8999232 -0.161029E-04  0.102E-02    9.28       1.0  T
   4   -255.8999249 -0.167253E-05  0.260E-03    9.29       3.1  T
   5   -255.8999249 -0.298427E-07  0.318E-04    9.29      25.7  T
   6   -255.8999249 -0.985267E-09  0.118E-04    9.29      69.3  T
     SCC iter.                  ...        0 min,  0.068 sec
     gradient                   ...        0 min,  0.052 sec
 * total energy  :  -254.3127063 Eh     change       -0.8603033E-02 Eh
   gradient norm :     0.0458572 Eh/α   predicted    -0.9888866E-02 (  14.95%)
   displ. norm   :     0.6891114 α      lambda       -0.1330234E-01
   maximum displ.:     0.1806679 α      in ANC's #38, #110, #41, ...

........................................................................
.............................. CYCLE   56 ..............................
........................................................................
   1   -255.9099183 -0.255910E+03  0.167E-01    9.32       0.0  T
   2   -255.9100625 -0.144249E-03  0.100E-01    9.33       1.0  T
   3   -255.9101102 -0.476577E-04  0.159E-02    9.34       1.0  T
   4   -255.9101144 -0.418097E-05  0.466E-03    9.34       1.8  T
   5   -255.9101145 -0.105190E-06  0.659E-04    9.34      12.4  T
   6   -255.9101145 -0.481592E-08  0.224E-04    9.34      36.5  T
     SCC iter.                  ...        0 min,  0.068 sec
     gradient                   ...        0 min,  0.052 sec
 * total energy  :  -254.2989421 Eh     change        0.1376419E-01 Eh
   gradient norm :     0.1794461 Eh/α   predicted    -0.9809636E-02 (-171.27%)
   displ. norm   :     0.3764089 α      lambda       -0.3209976E-01
   maximum displ.:     0.0964670 α      in ANC's #38, #220, #110, ...

........................................................................
.............................. CYCLE   57 ..............................
........................................................................
   1   -255.9039178 -0.255904E+03  0.115E-01    9.36       0.0  T
   2   -255.9039973 -0.794512E-04  0.689E-02    9.36       1.0  T
   3   -255.9040241 -0.267723E-04  0.120E-02    9.34       1.0  T
   4   -255.9040264 -0.233973E-05  0.344E-03    9.34       2.4  T
   5   -255.9040265 -0.634280E-07  0.411E-04    9.34      19.9  T
   6   -255.9040265 -0.170320E-08  0.171E-04    9.34      47.8  T
     SCC iter.                  ...        0 min,  0.068 sec
     gradient                   ...        0 min,  0.052 sec
 * total energy  :  -254.3160149 Eh     change       -0.1707287E-01 Eh
   gradient norm :     0.0507853 Eh/α   predicted    -0.1832391E-01 (   7.33%)
   displ. norm   :     0.6325303 α      lambda       -0.1483657E-01
   maximum displ.:     0.1252358 α      in ANC's #212, #282, #44, ...

........................................................................
.............................. CYCLE   58 ..............................
........................................................................
   1   -255.9021733 -0.255902E+03  0.159E-01    9.23       0.0  T
   2   -255.9023084 -0.135008E-03  0.955E-02    9.20       1.0  T
   3   -255.9023556 -0.472147E-04  0.155E-02    9.17       1.0  T
   4   -255.9023595 -0.396907E-05  0.437E-03    9.18       1.9  T
   5   -255.9023597 -0.114765E-06  0.621E-04    9.18      13.1  T
   6   -255.9023597 -0.439266E-08  0.230E-04    9.18      35.4  T
     SCC iter.                  ...        0 min,  0.069 sec
     gradient                   ...        0 min,  0.052 sec
 * total energy  :  -254.3062261 Eh     change        0.9788807E-02 Eh
   gradient norm :     0.1493319 Eh/α   predicted    -0.1038630E-01 (-206.10%)
   displ. norm   :     0.3885217 α      lambda       -0.2696875E-01
   maximum displ.:     0.0975787 α      in ANC's #266, #135, #152, ...

........................................................................
.............................. CYCLE   59 ..............................
........................................................................
   1   -255.9075750 -0.255908E+03  0.116E-01    9.20       0.0  T
   2   -255.9076526 -0.776165E-04  0.691E-02    9.21       1.0  T
   3   -255.9076810 -0.283871E-04  0.120E-02    9.22       1.0  T
   4   -255.9076832 -0.228049E-05  0.341E-03    9.21       2.4  T
   5   -255.9076833 -0.679496E-07  0.429E-04    9.21      19.0  T
   6   -255.9076833 -0.216087E-08  0.165E-04    9.21      49.4  T
     SCC iter.                  ...        0 min,  0.068 sec
     gradient                   ...        0 min,  0.052 sec
 * total energy  :  -254.3181948 Eh     change       -0.1196868E-01 Eh
   gradient norm :     0.0636446 Eh/α   predicted    -0.1551982E-01 (  29.67%)
   displ. norm   :     0.6768109 α      lambda       -0.2190161E-01
   maximum displ.:     0.1444364 α      in ANC's #118, #282, #212, ...

........................................................................
.............................. CYCLE   60 ..............................
........................................................................
   1   -255.8681482 -0.255868E+03  0.192E-01    9.17       0.0  T
   2   -255.8683812 -0.233002E-03  0.113E-01    9.19       1.0  T
   3   -255.8684532 -0.719772E-04  0.207E-02    9.21       1.0  T
   4   -255.8684600 -0.685202E-05  0.584E-03    9.20       1.4  T
   5   -255.8684602 -0.187090E-06  0.778E-04    9.20      10.5  T
   6   -255.8684602 -0.757032E-08  0.283E-04    9.20      28.8  T
     SCC iter.                  ...        0 min,  0.069 sec
     gradient                   ...        0 min,  0.052 sec
 * total energy  :  -254.3007417 Eh     change        0.1745310E-01 Eh
   gradient norm :     0.1801723 Eh/α   predicted    -0.1596706E-01 (-191.49%)
   displ. norm   :     0.3776783 α      lambda       -0.3896172E-01
   maximum displ.:     0.0871986 α      in ANC's #282, #38, #212, ...

........................................................................
.............................. CYCLE   61 ..............................
........................................................................
   1   -255.9143129 -0.255914E+03  0.123E-01    9.34       0.0  T
   2   -255.9144133 -0.100362E-03  0.727E-02    9.34       1.0  T
   3   -255.9144461 -0.327892E-04  0.138E-02    9.33       1.0  T
   4   -255.9144491 -0.300039E-05  0.385E-03    9.33       2.1  T
   5   -255.9144492 -0.827463E-07  0.475E-04    9.33      17.2  T
   6   -255.9144492 -0.271424E-08  0.178E-04    9.33      45.8  T
     SCC iter.                  ...        0 min,  0.068 sec
     gradient                   ...        0 min,  0.052 sec
 * total energy  :  -254.3220194 Eh     change       -0.2127772E-01 Eh
   gradient norm :     0.0434934 Eh/α   predicted    -0.2225966E-01 (   4.61%)
   displ. norm   :     0.6975621 α      lambda       -0.1498808E-01
   maximum displ.:     0.1523487 α      in ANC's #58, #104, #282, ...

........................................................................
.............................. CYCLE   62 ..............................
........................................................................
   1   -255.8545044 -0.255855E+03  0.186E-01    9.15       0.0  T
   2   -255.8547172 -0.212773E-03  0.111E-01    9.14       1.0  T
   3   -255.8547853 -0.680764E-04  0.199E-02    9.12       1.0  T
   4   -255.8547916 -0.632017E-05  0.567E-03    9.12       1.4  T
   5   -255.8547918 -0.174027E-06  0.745E-04    9.12      11.0  T
   6   -255.8547918 -0.692219E-08  0.286E-04    9.12      28.5  T
     SCC iter.                  ...        0 min,  0.068 sec
     gradient                   ...        0 min,  0.052 sec
 * total energy  :  -254.3024786 Eh     change        0.1954082E-01 Eh
   gradient norm :     0.1846702 Eh/α   predicted    -0.1114059E-01 (-157.01%)
   displ. norm   :     0.3919223 α      lambda       -0.4031175E-01
   maximum displ.:     0.1019451 α      in ANC's #104, #81, #152, ...

........................................................................
.............................. CYCLE   63 ..............................
........................................................................
   1   -255.8995383 -0.255900E+03  0.127E-01    9.17       0.0  T
   2   -255.8996541 -0.115870E-03  0.750E-02    9.19       1.0  T
   3   -255.8996912 -0.370294E-04  0.148E-02    9.20       1.0  T
   4   -255.8996946 -0.346259E-05  0.413E-03    9.20       2.0  T
   5   -255.8996947 -0.936670E-07  0.519E-04    9.20      15.7  T
   6   -255.8996947 -0.339585E-08  0.190E-04    9.20      43.1  T
     SCC iter.                  ...        0 min,  0.069 sec
     gradient                   ...        0 min,  0.052 sec
 * total energy  :  -254.3248840 Eh     change       -0.2240540E-01 Eh
   gradient norm :     0.0420523 Eh/α   predicted    -0.2325184E-01 (   3.78%)
   displ. norm   :     0.6662229 α      lambda       -0.1236416E-01
   maximum displ.:     0.1563966 α      in ANC's #147, #71, #69, ...

[...]
   109   8 O        1.607    -0.642    26.225     6.912
   110   1 H        0.802     0.338     0.618     1.235
   111   1 H        0.806     0.296     0.733     1.345
   112   8 O        1.607    -0.637    26.084     6.893
   113   1 H        0.806     0.279     0.788     1.394
   114   1 H        0.801     0.344     0.603     1.220
   115   8 O        1.607    -0.647    26.342     6.927
   116   1 H        0.802     0.339     0.615     1.232
   117   1 H        0.805     0.305     0.706     1.319
   118   8 O        1.610    -0.615    25.556     6.823
   119   1 H        0.804     0.324     0.653     1.269
   120   1 H        0.804     0.327     0.645     1.261
   121   8 O        1.606    -0.663    26.741     6.979
   122   1 H        0.805     0.313     0.684     1.299
   123   1 H        0.802     0.337     0.621     1.238
   124   8 O        1.609    -0.654    26.519     6.950
   125   1 H        0.804     0.334     0.628     1.244
   126   1 H        0.804     0.328     0.644     1.260
   127   8 O        1.607    -0.665    26.801     6.987
   128   1 H        0.803     0.330     0.638     1.254
   129   1 H        0.804     0.312     0.687     1.302
   130   8 O        1.608    -0.648    26.360     6.929
   131   1 H        0.804     0.322     0.657     1.274
   132   1 H        0.804     0.328     0.642     1.259
   133   8 O        1.604    -0.679    27.151     7.032
   134   1 H        0.801     0.352     0.583     1.200
   135   1 H        0.804     0.329     0.641     1.258
   136   8 O        1.608    -0.635    26.049     6.888
   137   1 H        0.804     0.324     0.654     1.270
   138   1 H        0.804     0.319     0.667     1.283
   139   8 O        1.607    -0.625    25.783     6.853
   140   1 H        0.802     0.348     0.593     1.210
   141   1 H        0.806     0.279     0.788     1.394
   142   8 O        1.609    -0.674    27.020     7.016
   143   1 H        0.804     0.337     0.619     1.236
   144   1 H        0.804     0.332     0.633     1.250
   145   8 O        1.609    -0.641    26.194     6.908
   146   1 H        0.804     0.321     0.660     1.276
   147   1 H        0.804     0.320     0.665     1.281
   148   8 O        1.610    -0.639    26.137     6.900
   149   1 H        0.803     0.327     0.644     1.261
   150   1 H        0.803     0.326     0.649     1.265

 Mol. C6AA /au·bohr⁶  :     113336.167184
 Mol. C8AA /au·bohr⁸  :    2049034.561707
 Mol. α(0) /au        :        473.735745


Wiberg/Mayer (AO) data.
largest (>0.10) Wiberg bond orders for each atom

 ---------------------------------------------------------------------------
     #   Z sym  total        # sym  WBO       # sym  WBO       # sym  WBO
 ---------------------------------------------------------------------------
     1   8 O    1.888 --     2 H    0.862     3 H    0.829
     2   1 H    0.894 --     1 O    0.862
     3   1 H    0.879 --     1 O    0.829
     4   8 O    1.870 --     5 H    0.858     6 H    0.848
     5   1 H    0.901 --     4 O    0.858
     6   1 H    0.895 --     4 O    0.848
     7   8 O    1.869 --     9 H    0.848     8 H    0.795
     8   1 H    0.883 --     7 O    0.795
     9   1 H    0.893 --     7 O    0.848
    10   8 O    1.877 --    12 H    0.831    11 H    0.801
    11   1 H    0.879 --    10 O    0.801
    12   1 H    0.881 --    10 O    0.831
    13   8 O    1.866 --    15 H    0.852    14 H    0.797
    14   1 H    0.886 --    13 O    0.797
    15   1 H    0.894 --    13 O    0.852
    16   8 O    1.876 --    18 H    0.912    17 H    0.762
    17   1 H    0.879 --    16 O    0.762   148 O    0.115
    18   1 H    0.919 --    16 O    0.912
    19   8 O    1.892 --    20 H    0.842    21 H    0.820
    20   1 H    0.886 --    19 O    0.842
    21   1 H    0.887 --    19 O    0.820
    22   8 O    1.880 --    23 H    0.849    24 H    0.822
    23   1 H    0.885 --    22 O    0.849
    24   1 H    0.886 --    22 O    0.822
    25   8 O    1.894 --    26 H    0.852    27 H    0.817
    26   1 H    0.892 --    25 O    0.852
    27   1 H    0.881 --    25 O    0.817
    28   8 O    1.868 --    29 H    0.877    30 H    0.856
    29   1 H    0.899 --    28 O    0.877
    30   1 H    0.899 --    28 O    0.856
    31   8 O    1.855 --    32 H    0.862    33 H    0.857
    32   1 H    0.895 --    31 O    0.862
    33   1 H    0.892 --    31 O    0.857
    34   8 O    1.869 --    36 H    0.840    35 H    0.816
    35   1 H    0.888 --    34 O    0.816
    36   1 H    0.897 --    34 O    0.840
    37   8 O    1.852 --    39 H    0.834    38 H    0.788
    38   1 H    0.884 --    37 O    0.788
    39   1 H    0.893 --    37 O    0.834
    40   8 O    1.852 --    41 H    0.918    42 H    0.823
    41   1 H    0.923 --    40 O    0.918
    42   1 H    0.887 --    40 O    0.823
    43   8 O    1.864 --    44 H    0.830    45 H    0.821
    44   1 H    0.895 --    43 O    0.830
    45   1 H    0.890 --    43 O    0.821
    46   8 O    1.876 --    48 H    0.819    47 H    0.801
    47   1 H    0.884 --    46 O    0.801
    48   1 H    0.890 --    46 O    0.819
    49   8 O    1.876 --    51 H    0.823    50 H    0.823
    50   1 H    0.880 --    49 O    0.823
    51   1 H    0.881 --    49 O    0.823
    52   8 O    1.878 --    54 H    0.886    53 H    0.821
    53   1 H    0.890 --    52 O    0.821
    54   1 H    0.903 --    52 O    0.886
    55   8 O    1.844 --    57 H    0.897    56 H    0.807
    56   1 H    0.884 --    55 O    0.807
    57   1 H    0.910 --    55 O    0.897
    58   8 O    1.860 --    60 H    0.855    59 H    0.837
    59   1 H    0.893 --    58 O    0.837
    60   1 H    0.896 --    58 O    0.855
    61   8 O    1.837 --    62 H    0.911    63 H    0.794
    62   1 H    0.916 --    61 O    0.911
    63   1 H    0.881 --    61 O    0.794
    64   8 O    1.878 --    66 H    0.838    65 H    0.811
    65   1 H    0.889 --    64 O    0.811
    66   1 H    0.889 --    64 O    0.838
    67   8 O    1.875 --    69 H    0.839    68 H    0.825
    68   1 H    0.889 --    67 O    0.825
    69   1 H    0.888 --    67 O    0.839
    70   8 O    1.868 --    72 H    0.849    71 H    0.834
    71   1 H    0.891 --    70 O    0.834
    72   1 H    0.899 --    70 O    0.849
    73   8 O    1.858 --    75 H    0.867    74 H    0.866
    74   1 H    0.902 --    73 O    0.866
    75   1 H    0.900 --    73 O    0.867
    76   8 O    1.863 --    78 H    0.848    77 H    0.824
    77   1 H    0.890 --    76 O    0.824
    78   1 H    0.897 --    76 O    0.848
    79   8 O    1.861 --    81 H    0.915    80 H    0.809
    80   1 H    0.884 --    79 O    0.809
    81   1 H    0.919 --    79 O    0.915
    82   8 O    1.844 --    84 H    0.889    83 H    0.819
    83   1 H    0.883 --    82 O    0.819
    84   1 H    0.908 --    82 O    0.889
    85   8 O    1.842 --    87 H    0.918    86 H    0.819
    86   1 H    0.886 --    85 O    0.819
    87   1 H    0.923 --    85 O    0.918
    88   8 O    1.862 --    90 H    0.836    89 H    0.823
    89   1 H    0.883 --    88 O    0.823
    90   1 H    0.895 --    88 O    0.836
    91   8 O    1.844 --    93 H    0.881    92 H    0.879
    92   1 H    0.900 --    91 O    0.879
    93   1 H    0.902 --    91 O    0.881
    94   8 O    1.863 --    95 H    0.912    96 H    0.820
    95   1 H    0.919 --    94 O    0.912
    96   1 H    0.881 --    94 O    0.820
    97   8 O    1.885 --    98 H    0.841    99 H    0.813
    98   1 H    0.895 --    97 O    0.841
    99   1 H    0.884 --    97 O    0.813
   100   8 O    1.860 --   101 H    0.860   102 H    0.847
   101   1 H    0.899 --   100 O    0.860
   102   1 H    0.896 --   100 O    0.847
   103   8 O    1.855 --   104 H    0.829   105 H    0.808
   104   1 H    0.895 --   103 O    0.829
   105   1 H    0.887 --   103 O    0.808
   106   8 O    1.854 --   107 H    0.822   108 H    0.813
   107   1 H    0.881 --   106 O    0.822
   108   1 H    0.891 --   106 O    0.813
   109   8 O    1.857 --   111 H    0.896   110 H    0.795
   110   1 H    0.886 --   109 O    0.795
   111   1 H    0.912 --   109 O    0.896
   112   8 O    1.846 --   113 H    0.914   114 H    0.797
   113   1 H    0.922 --   112 O    0.914
   114   1 H    0.882 --   112 O    0.797
   115   8 O    1.865 --   117 H    0.892   116 H    0.793
   116   1 H    0.885 --   115 O    0.793
   117   1 H    0.907 --   115 O    0.892
   118   8 O    1.897 --   119 H    0.872   120 H    0.869
   119   1 H    0.895 --   118 O    0.872
   120   1 H    0.893 --   118 O    0.869
   121   8 O    1.861 --   122 H    0.864   123 H    0.803
   122   1 H    0.902 --   121 O    0.864
   123   1 H    0.887 --   121 O    0.803
   124   8 O    1.869 --   125 H    0.850   126 H    0.838
   125   1 H    0.889 --   124 O    0.850
   126   1 H    0.893 --   124 O    0.838
   127   8 O    1.847 --   129 H    0.864   128 H    0.818
   128   1 H    0.891 --   127 O    0.818
   129   1 H    0.903 --   127 O    0.864
   130   8 O    1.847 --   131 H    0.856   132 H    0.852
   131   1 H    0.896 --   130 O    0.856
   132   1 H    0.892 --   130 O    0.852
   133   8 O    1.885 --   135 H    0.838   134 H    0.782
   134   1 H    0.876 --   133 O    0.782
   135   1 H    0.892 --   133 O    0.838
   136   8 O    1.878 --   138 H    0.855   137 H    0.855
   137   1 H    0.895 --   136 O    0.855
   138   1 H    0.898 --   136 O    0.855
   139   8 O    1.863 --   141 H    0.917   140 H    0.806
   140   1 H    0.879 --   139 O    0.806
   141   1 H    0.922 --   139 O    0.917
   142   8 O    1.830 --   143 H    0.836   144 H    0.831
   143   1 H    0.886 --   142 O    0.836
   144   1 H    0.890 --   142 O    0.831
   145   8 O    1.852 --   147 H    0.855   146 H    0.855
   146   1 H    0.897 --   145 O    0.855
   147   1 H    0.898 --   145 O    0.855
   148   8 O    1.901 --   149 H    0.844   150 H    0.843    17 H    0.115
   149   1 H    0.893 --   148 O    0.844
   150   1 H    0.894 --   148 O    0.843
 ---------------------------------------------------------------------------

Topologies differ in total number of bonds
Writing topology from bond orders to xtbtopo.mol

molecular dipole:
                 x           y           z       tot (Debye)
 q only:       -1.402       2.552       1.245
   full:       -1.763       3.586       1.826      11.167
molecular quadrupole (traceless):
                xx          xy          yy          xz          yz          zz
 q only:        5.304      18.581      14.024       7.796       6.907     -19.328
  q+dip:        6.726      26.733      19.761       7.034      11.457     -26.486
   full:        6.592      26.786      20.101       7.165      12.140     -26.692

           -------------------------------------------------
          |                Geometry Summary                 |
           -------------------------------------------------

      molecular mass/u    :      900.7643210
   center of mass at/Å    :        0.3562866      -0.3474887      -0.3549161
  moments of inertia/u·Å² :        0.1304932E+05   0.1373294E+05   0.1500662E+05
rotational constants/cm⁻¹ :        0.1291840E-02   0.1227532E-02   0.1123346E-02

 * 99 selected distances

     #   Z          #   Z                                           value/Å
     1   8 O        2   1 H                                       0.9675307
     1   8 O        3   1 H                                       0.9761952
     4   8 O        5   1 H                                       0.9719642
     4   8 O        6   1 H                                       0.9747221
     7   8 O        8   1 H                                       0.9900734
     7   8 O        9   1 H                                       0.9633528
    10   8 O       11   1 H                                       0.9857627
    10   8 O       12   1 H                                       0.9721673
    13   8 O       14   1 H                                       0.9898243
    13   8 O       15   1 H                                       0.9694847
    16   8 O       18   1 H                                       0.9567298
    19   8 O       20   1 H                                       0.9721792
    19   8 O       21   1 H                                       0.9753653
    22   8 O       23   1 H                                       0.9714245
    22   8 O       24   1 H                                       0.9787900
    25   8 O       26   1 H                                       0.9704335
    25   8 O       27   1 H                                       0.9836719
    28   8 O       29   1 H                                       0.9662471
    28   8 O       30   1 H                                       0.9732878
    31   8 O       32   1 H                                       0.9675308
    31   8 O       33   1 H                                       0.9706483
    34   8 O       35   1 H                                       0.9770837
    34   8 O       36   1 H                                       0.9703849
    37   8 O       38   1 H                                       0.9944402
    37   8 O       39   1 H                                       0.9773695
    40   8 O       41   1 H                                       0.9567478
    40   8 O       42   1 H                                       0.9823135
    43   8 O       44   1 H                                       0.9783685
    43   8 O       45   1 H                                       0.9821406
    46   8 O       47   1 H                                       0.9809601
    46   8 O       48   1 H                                       0.9772839
    49   8 O       50   1 H                                       0.9740061
    49   8 O       51   1 H                                       0.9734305
    52   8 O       53   1 H                                       0.9855565
    52   8 O       54   1 H                                       0.9633608
    55   8 O       56   1 H                                       0.9875405
    55   8 O       57   1 H                                       0.9602191
    58   8 O       59   1 H                                       0.9750525
    58   8 O       60   1 H                                       0.9680290
    61   8 O       62   1 H                                       0.9581872
    61   8 O       63   1 H                                       0.9902767
    64   8 O       65   1 H                                       0.9854596
    64   8 O       66   1 H                                       0.9712143
    67   8 O       68   1 H                                       0.9768749
    67   8 O       69   1 H                                       0.9731989
    70   8 O       71   1 H                                       0.9796294
    70   8 O       72   1 H                                       0.9716274
    73   8 O       74   1 H                                       0.9692951
    73   8 O       75   1 H                                       0.9697786
    76   8 O       77   1 H                                       0.9810646
    76   8 O       78   1 H                                       0.9747581
    79   8 O       80   1 H                                       0.9874040
    79   8 O       81   1 H                                       0.9571672
    82   8 O       83   1 H                                       0.9814527
    82   8 O       84   1 H                                       0.9621610
    85   8 O       86   1 H                                       0.9840229
    85   8 O       87   1 H                                       0.9564892
    88   8 O       89   1 H                                       0.9806135
    88   8 O       90   1 H                                       0.9764979
    91   8 O       92   1 H                                       0.9648823
    91   8 O       93   1 H                                       0.9651509
    94   8 O       95   1 H                                       0.9567589
    94   8 O       96   1 H                                       0.9819392
    97   8 O       98   1 H                                       0.9764383
    97   8 O       99   1 H                                       0.9846794
   100   8 O      101   1 H                                       0.9705341
   100   8 O      102   1 H                                       0.9737458
   103   8 O      104   1 H                                       0.9794389
   103   8 O      105   1 H                                       0.9881259
   106   8 O      107   1 H                                       0.9762612
   106   8 O      108   1 H                                       0.9806506
   109   8 O      110   1 H                                       0.9911335
   109   8 O      111   1 H                                       0.9570440
   112   8 O      113   1 H                                       0.9559348 (min)
   112   8 O      114   1 H                                       0.9923105
   115   8 O      116   1 H                                       0.9892170
   115   8 O      117   1 H                                       0.9602395
   118   8 O      119   1 H                                       0.9679417
   118   8 O      120   1 H                                       0.9680427
   121   8 O      122   1 H                                       0.9675533
   121   8 O      123   1 H                                       0.9900753
   124   8 O      125   1 H                                       0.9688463
   124   8 O      126   1 H                                       0.9744563
   127   8 O      128   1 H                                       0.9817957
   127   8 O      129   1 H                                       0.9709623
   130   8 O      131   1 H                                       0.9702153
   130   8 O      132   1 H                                       0.9716549
   133   8 O      134   1 H                                       0.9953555 (max)
   133   8 O      135   1 H                                       0.9735019
   136   8 O      137   1 H                                       0.9748107
   136   8 O      138   1 H                                       0.9734852
   139   8 O      140   1 H                                       0.9877006
   139   8 O      141   1 H                                       0.9567567
   142   8 O      143   1 H                                       0.9686351
   142   8 O      144   1 H                                       0.9700972
   145   8 O      146   1 H                                       0.9691063
   145   8 O      147   1 H                                       0.9680561
   148   8 O      149   1 H                                       0.9757666
   148   8 O      150   1 H                                       0.9780934

 * 1 distinct bonds (by element types)

   Z      Z             #   av. dist./Å        max./Å        min./Å
   1 H    8 O          99     0.9744065     0.9953555     0.9559348


optimized geometry written to: xtbopt.xyz


           -------------------------------------------------
          | TOTAL ENERGY             -254.459412930153 Eh   |
          | GRADIENT NORM               0.000811721712 Eh/α |
          | HOMO-LUMO GAP               9.041931762301 eV   |
           -------------------------------------------------

------------------------------------------------------------------------
 * finished run on 2022/09/20 at 15:11:44.579     
------------------------------------------------------------------------
 total:
 * wall-time:     0 d,  0 h,  1 min,  2.245 sec
 *  cpu-time:     0 d,  0 h,  8 min,  5.017 sec
 * ratio c/w:     7.792 speedup
 SCF:
 * wall-time:     0 d,  0 h,  0 min,  0.177 sec
 *  cpu-time:     0 d,  0 h,  0 min,  1.409 sec
 * ratio c/w:     7.970 speedup
 ANC optimizer:
 * wall-time:     0 d,  0 h,  1 min,  1.795 sec
 *  cpu-time:     0 d,  0 h,  8 min,  2.641 sec
 * ratio c/w:     7.810 speedup

normal termination of xtb
