723
 energy: -991.881189897401 gnorm: 0.888460928340 xtb: 6.4.1 (afa7bdf)
O        -0.93996473515199   -0.73423011944729   -0.91605260447526
H        -0.64197621395031   -0.63682761263379    0.00658832063999
H        -0.40196508367557   -0.12511577964260   -1.34935635680625
O         9.26385382199266   -2.64576119977354   -0.31342236990967
H         9.47745274142137   -1.80745598011946    0.18550150628399
C         7.82122183090316   -2.82878383458831   -0.46630626804260
H         7.21722454721572   -1.88002055411282   -0.42173711140470
H         7.43500857169898   -3.56731454383449    0.30104386032793
H         7.54895284310298   -3.05497586192538   -1.46329665667105
O        -9.99252695097982    6.04428877324264    1.11883240156196
H        -9.18377719187167    6.36060279218202    0.85389447476264
C       -10.10733302243305    4.65621094917123    1.07388112197663
H       -11.05958023280418    4.38118266541233    0.59160899260178
H       -10.18923316540709    4.22134081520290    2.07335814887627
H        -9.28972696395470    4.16529756807596    0.53082535182645
O        -7.70304149254147    3.09170047738077   -5.51389759228140
H        -7.87842263554348    2.20374895710341   -5.68163964731890
C        -8.69458429865645    3.73702897474744   -6.25773548321696
H        -9.75666880234997    3.69764952159652   -5.65731055374291
H        -8.92328321652778    3.43000588719722   -7.34553101301413
H        -8.33442007519063    4.77927496262199   -6.39934010639127
O         1.57608385679186    6.80772475908787    8.12122577174111
H         0.73615475022099    6.81547638417195    7.60938539831845
C         2.39575662054113    8.01168524521225    8.04900894548580
H         2.72795793345139    8.43717985875545    9.05469752098067
H         1.81452710676918    8.74946636367823    7.48225823609678
H         3.34924190905270    7.75542953415843    7.48446511411819
O         6.43332705262767    1.10538743196321    8.74631423400924
H         6.01593200636108    1.44571809931666    7.93936472895943
C         7.39941765746782    0.12830299294152    8.30233330798730
H         8.20556657344450    0.26890115565862    9.13775549754467
H         7.80845835086669    0.28061759366942    7.33703424104386
H         7.02325417622017   -0.86935437151700    8.39317325030098
O         3.27196059610493  -10.06163727579731    1.47265059901734
H         2.35804262381403  -10.21180431073026    1.59472382334617
C         3.68546185439357   -9.55022746010427    2.70081972145459
H         4.73670761674407   -9.04245775021504    2.66425626539650
H         3.75117776461530  -10.38511958363266    3.38560029380050
H         3.03039166395357   -8.77989552894767    3.16170383110469
O         2.24192473725615   -2.04701649908839   -3.42299356477444
H         1.63838101088916   -1.32021604924917   -3.36671430262790
C         3.59085853127437   -1.78007769975804   -3.58395259512044
H         4.08131792207450   -2.79037395805572   -3.46578991490864
H         4.00967086827182   -1.17937390400248   -2.75163712278504
H         3.97897825636070   -1.27688747610772   -4.50696481382687
O         2.34930508618352    9.81440824853407   -2.67428619102431
H         1.46778305052332    9.42142078831335   -2.91401631137679
C         2.24817136085928   10.29064008083595   -1.34037608911819
H         3.20339082630509   10.64440656265374   -1.11610108933727
H         2.00358708270410    9.40333350765079   -0.77986565888008
H         1.52934962048435   11.10316820892021   -1.36538514085202
O        -4.63469214504175   -2.82313884858722   10.97283903877021
H        -3.67671832075840   -2.61715066368971   11.10291105467511
C        -5.01591405972752   -1.89638102443490    9.94438201582724
H        -6.07901893918651   -1.67668297952579   10.10558409771748
H        -4.93355449807208   -2.36197959690550    8.95482870500323
H        -4.41679770686341   -1.03238324529586    9.89551782114411
O        -3.23173000949516   -4.54267835231463    4.57763030996535
H        -3.79721126595349   -5.12636701591956    5.12634939973277
C        -2.04879085565465   -4.48923861852157    5.34638388094390
H        -1.77293753540689   -5.46853786283587    5.47994967469634
H        -2.30117057879638   -3.96258889760154    6.28268102201336
H        -1.28533664080624   -3.83963948665978    4.88865830177673
O         2.29589257442626   -2.71019369128406    6.46468784214267
H         1.95615845252310   -3.54169739863636    6.18944504959399
C         1.11918568149099   -1.91365264510512    6.60152023967166
H         1.46488420555044   -0.95889344527702    6.42395508168056
H         0.76701397767162   -1.89126147307418    7.60834506402014
H         0.38419261329879   -2.20352443017316    5.88127576085539
O         3.99236947053319    7.23567442872954   -2.84624612663971
H         3.56936804361256    8.07452503946716   -2.78555232496652
C         3.17921861068825    6.24252455915308   -2.25546254575378
H         2.59693626102349    6.45856549903017   -1.37386829648203
H         3.67755365044032    5.25283861530584   -2.13594793784170
H         2.39892200749625    6.16096100272194   -2.87887586785164
O         8.63295056265892    4.41201651792793   -5.53011808111228
H         7.78924819944969    4.66811114324201   -5.93987636509949
C         8.93913384693588    3.26310987864185   -6.29503978318267
H         8.43523579809250    2.29590292879182   -6.03256985449792
H        10.01121917643052    3.14364743110780   -6.17752940872217
H         8.74228669724311    3.35725542875273   -7.36313656014089
O        -8.86103817884909    1.08657893855258   -6.78439840563942
H        -8.21071835640949    0.59181315101285   -7.22048079076508
C        -9.81742647241616    0.21771355918405   -6.09581727326925
H       -10.90540734474810    0.53096323926259   -6.21299061837527
H        -9.53523862729025    0.18676223389571   -5.07641501647489
H        -9.88795713209334   -0.70710141608512   -6.52468745668519
O         0.19900599549738    8.07693895773571   -6.05897480878873
H         1.06147467780279    7.69680385765374   -6.50688178345425
C        -0.60326658170160    8.67806164489460   -7.05887819407769
H        -1.37218921713649    7.99936851132664   -7.61680514591270
H        -0.09164889271090    9.23293247174684   -7.81641636372461
H        -1.13689788532246    9.51225892115717   -6.55823303922619
O         2.94654945697498   -0.94826889771601   10.10709020385145
H         3.94557990190150   -0.89422501583600   10.13098094318783
C         2.29156194655146    0.15149706753501   10.59920435663412
H         1.25470230675155   -0.05369888404796   10.41154955348176
H         2.70180911204892    1.01100243988213    9.93695520439192
H         2.43082080001913    0.37029606518810   11.63678098555915
O        -0.97766599430346   11.03936098095980    4.64195700700720
H        -0.82725163156182   10.67112034602133    5.49543407480012
C        -2.25446197329646   10.69495425725092    4.20369638512066
H        -2.96794671750500   10.84991999420044    4.99217845647249
H        -2.32329484098176    9.67293855585794    3.80170633177046
H        -2.60106585798082   11.34341351604145    3.43189128675307
O        -4.09496587010083   -3.65261291174439    2.08426782768605
H        -3.45315851164433   -4.18050267918956    2.54470961404571
C        -5.21606675598696   -3.35617173700505    3.00950592361446
H        -5.67798045621872   -2.47942417754742    2.56067832340478
H        -5.00714924962106   -3.26783874365665    4.14703788318872
H        -5.92093910972539   -4.18022423236393    2.79092215617167
O        -4.62704516749172   -4.98250914381851   -9.54494823992461
H        -3.80987816875964   -5.50417816632861   -9.44410496508122
C        -4.23400378282813   -3.63045088896400   -9.88519107979089
H        -5.23450528337065   -3.20357103688316  -10.03241343462917
H        -3.83154897203869   -3.52750477317762  -10.80329384348772
H        -3.87693035473837   -3.08395391816075   -9.03485412625134
O        -0.24573241498698   -4.54077805457032   -9.33580862742889
H         0.42493783187245   -3.97926294096435   -8.90131315654644
C        -0.02783631146440   -4.21970975661420  -10.66804697435102
H        -0.47048410318207   -5.06949072725452  -11.27492562124699
H         0.98790554535748   -4.37078223105169  -10.93420146715411
H        -0.54587265381749   -3.26780765775667  -10.87927449167278
O         1.56524873016139   -6.67855392775108    2.70525829673298
H         1.03215091535635   -7.44753630572699    2.72949822913648
C         0.84869274539150   -5.52671215729187    2.92414542451882
H        -0.04597097049006   -5.57611957290612    2.47481683419858
H         1.38470747437259   -4.59590658078247    2.59590072293605
H         0.57875078332662   -5.42503713777889    3.99272305286130
O         0.57071177523766   -9.49686646497327   -6.21032245270725
H         1.21350820925982   -9.75709306487277   -6.87550510036476
C         1.19275403935866   -8.43742854516194   -5.43848782444185
H         0.84112773594148   -8.46190134519151   -4.39021575858444
H         1.21887645228008   -7.51655195203153   -5.97370708223615
H         2.24267712963161   -8.72104814093813   -5.37209041426880
O         7.09129524875473    5.70609306632868    2.14955682412949
H         6.60793574324909    6.52162489184616    2.02730278921853
C         7.96810211242474    5.45941531417618    1.09551548700762
H         8.52665463171033    4.57397273910751    1.30923869468710
H         8.59766404317243    6.40309089503744    0.97221824463160
H         7.48044083800947    5.21246412694736    0.16564298071788
O        -1.97440018174050    6.03668750259281   -9.14591789127909
H        -2.73457832376616    5.41234094771373   -9.23328272392239
C        -1.09429344221952    6.07875125770224  -10.27551547135938
H        -1.57141687565708    5.88910910847446  -11.29250933555335
H        -0.28740922875866    5.36077416202271  -10.13252100516258
H        -0.56028093707123    7.03358476660466  -10.13888185858347
O         9.40026477695404    2.30509890079054    0.43540756479427
H         9.63396402077198    1.73480264206077   -0.30533814183394
C         8.12411290362560    1.61689695187889    0.75771405860417
H         7.81478951054228    1.97059413871905    1.77220868732072
H         8.28300694966800    0.64318774012725    0.61997165302036
H         7.17044257361214    1.86431032883537    0.17061471067890
O        -6.03894135313197    5.28707512144349   -6.74154033205057
H        -6.24047676062397    4.36329619152119   -6.38181167457224
C        -5.86134101440029    5.95038431834806   -5.42728381534319
H        -6.40744337616378    6.92190391559969   -5.54065901319837
H        -4.78965331830354    6.06747564603987   -5.39898149261750
H        -6.24316415126726    5.51255121016067   -4.54284519986966
O         4.86634175741758   -5.40250803877294    1.95740454732831
H         4.21219050315253   -5.97269504216631    1.48532200672880
C         6.20609186041447   -5.51232352455125    1.61177756378637
H         6.55683879632159   -6.52836554380029    1.59768744728202
H         6.66088268083576   -5.08810533075731    2.47271432674609
H         6.40003439002719   -4.95738573149009    0.63655268893731
O         4.43370395167424    0.59183391367271   -1.70079115434567
H         4.57133426825514    0.39023583544743   -0.78541169392805
C         4.23041699754764    1.94499289408674   -1.92172734501584
H         3.25283995909357    2.23148372714699   -1.54068543624680
H         4.24288757915662    2.10724325124937   -2.96429690484824
H         5.02707074795947    2.54310915550910   -1.41195358917483
O        -2.94692146947585    1.65370036145581    9.24624390366566
H        -1.99558493797505    1.92969657301605    9.09086824361071
C        -3.54372880631699    2.89194072769893    8.96014875919182
H        -4.58798971814427    2.79675055635223    9.15041471954323
H        -3.22096303706199    3.07932672191123    7.89557329815865
H        -3.07748991573267    3.62888891300613    9.66232531799347
O        -0.29738481038479    3.58729131460853    9.13531515337853
H        -0.08167689171977    3.90936609559470    8.20794510106292
C         0.89224412223703    3.79332801184710    9.96800739105739
H         1.78489450985348    3.22265876789557    9.72963883237668
H         0.54791876824067    3.32951531604954   10.89674967264355
H         1.10272525216428    4.84379289122224   10.05813450471620
O         6.46327781718022   -4.08233387603817    9.05217066290826
H         5.87093978592185   -3.70891602874577    9.72955166944728
C         5.92095153184226   -5.28702177270148    8.62598893421732
H         5.22257714923071   -5.76759867194843    9.40508785997679
H         6.66216662826646   -5.97797944071613    8.32348761371601
H         5.29706953325013   -5.15783147618984    7.78612863755862
O        -3.51452764665735   -2.60008021207095   -5.12453822659593
H        -3.92638045419739   -2.34475150245465   -4.24339848770608
C        -4.53005538347824   -2.40631249565849   -6.00559887059236
H        -5.44002807176632   -2.10785713519267   -5.48754830073161
H        -4.74711326182195   -3.28457308823012   -6.53852030880260
H        -4.25948083122750   -1.50068361953927   -6.77482235223311
O        -2.31058949338516   -1.26314634956378    3.36367862305931
H        -2.97141688615443   -1.74562663927468    3.84981118261072
C        -3.11485030118712   -0.64946165608324    2.37482525879340
H        -3.26757890715128   -1.46709753824582    1.66894073203335
H        -2.61325533052917    0.21053677056999    1.80625802123734
H        -4.07424568147130   -0.29750701535799    2.68329212283281
O        -6.82835732855700   -7.27075389247618   -0.59267038832086
H        -5.87279413843084   -7.43461682118150   -0.47793513598949
C        -7.54432044238945   -8.14001846208336    0.21178352769701
H        -8.61269476612419   -7.98031028969788   -0.05492062055222
H        -7.28102770288867   -8.09801915474936    1.31299253010490
H        -7.22220651633383   -9.15821354996865    0.11777185810976
O         6.39716524252083    6.13420283267326   -8.40853463563596
H         6.51517887212653    6.22205146510272   -7.41890352156941
C         6.12551460044409    4.76443677954868   -8.71993764351506
H         7.07025757579891    4.23934007728994   -8.62019454629547
H         5.75914791523399    4.87769725923280   -9.76526927260944
H         5.32993649830727    4.35061132832024   -8.15033686178954
O        -7.04976795501366    2.36230219937694    8.96706409846862
H        -7.33775015005840    3.35649968133868    9.05130656458815
C        -7.18137316291969    2.05863339439897    7.61676596386165
H        -6.69038548699756    2.81067025702721    7.07090628256748
H        -8.23089516228802    1.99267972687711    7.32779364103130
H        -6.72211739347445    1.10864847270713    7.44789508800213
O         9.55731934346876   -4.54602369192664   -2.63761517085137
H         9.53417296293688   -3.73621888236088   -2.12172597334425
C        10.23338791643515   -4.12768196510917   -3.83113660257366
H         9.58171710278047   -3.99442177160764   -4.72740698423150
H        10.91345410658921   -5.05010768406617   -4.18493290206545
H        10.68750587925688   -3.14241833423468   -3.71043076822699
O         5.59403458493926    4.35016797816861   -5.95329872130867
H         5.15597731924021    5.05214432954769   -5.32633112080502
C         5.10938238039025    2.99819798734298   -5.49862399287133
H         5.59584688189596    2.28306193481057   -6.27139132416982
H         4.07488561594558    3.05150456515981   -5.59175322485510
H         5.51012721921915    2.72341546975030   -4.53599912610517
O        10.17729917218888    4.97023482959345   -2.89633696344749
H         9.66378739656069    5.15429823179345   -3.62305573458162
C         9.87720560130821    3.63577484649440   -2.59184246096742
H         8.96988984227038    3.48578607607321   -1.97963014133337
H        10.79893077269607    3.23780694929145   -2.10235049795415
H         9.77002926313672    3.03763981324018   -3.47609022396502
O         0.36468653535548  -10.59676118778444    2.19395300118323
H         0.30075892731285  -10.02639822344704    2.99722502981971
C        -0.83302834248525  -11.21329935476952    1.67286431614482
H        -0.60747214752883  -12.16494814561554    1.34805041439707
H        -1.43843943492391  -10.53279421603931    1.05353047849212
H        -1.44531465699815  -11.29586907602213    2.51989471049337
O         0.29714986251471    8.05636779330346   -3.34495735378539
H         0.25360576864194    8.05110027000088   -4.39716936125379
C        -0.75391654423036    8.98088927527563   -3.00092910360475
H        -1.68457433543469    8.76482685097326   -3.65087114587452
H        -0.26850988864570    9.95368174418700   -3.10293566812517
H        -1.10674423431961    8.98639800093548   -1.97940479731937
O        -0.41341863071663    1.81068935557013    0.38247631272711
H        -1.18900762278303    1.76395751475410   -0.19239597619852
C         0.75065216089986    1.86894634294351   -0.52325903663704
H         1.22011707768265    2.87347899575851   -0.52489520699556
H         0.50466955176330    1.78239146927388   -1.58532061804477
H         1.61562537497312    1.29722174553539   -0.22394412758473
O         5.09884991330440   -0.93508458027992  -10.85394978140761
H         4.40195976003373   -1.53693856222595  -10.66855535646775
C         4.89949248909500    0.37071620039261  -10.34505058067894
H         5.75167688166881    1.01568599522561  -10.59816701434698
H         4.65720201179590    0.37158856212031   -9.21531186318806
H         3.92333471962352    0.66496556502086  -10.75146573305442
O         4.34420595469307    4.41772652396640    6.72366604176774
H         4.65562033010205    5.24104778805790    6.18437196688936
C         4.60654677569517    5.00014950586933    8.01304484056080
H         4.58694731827690    4.11148459261763    8.64077477489818
H         3.75215911281011    5.61964157287172    8.37973055456284
H         5.56476907602987    5.52620276804618    8.10886458410450
O         3.92436688208587   -5.24681861059583   -8.75951056734905
H         3.13863132854903   -4.76643837851560   -8.95730728985868
C         3.36717800720647   -6.44499244499092   -8.29406660692357
H         3.23148033623308   -7.22668781712352   -9.01999948518297
H         2.48277389216798   -6.30974170738660   -7.74177533600495
H         4.12618270421234   -6.73016398458411   -7.50569216179944
O        -0.15671676237569    1.56562603299438    4.19796061440375
H        -0.18683081232822    1.35688889714002    5.12446951964032
C         0.55842318308756    0.58071585068499    3.45717354518376
H         0.59696487010940    0.84904632211721    2.50470300388960
H         0.08583378230891   -0.44838031441717    3.57379854639945
H         1.56133020500541    0.44507201143058    3.90511710236061
O         4.04751900046509   -1.99473424635437    4.43718672658338
H         3.12266969570928   -2.16564720183835    4.61510995318904
C         4.81787334485470   -3.03345194117967    5.16578690798871
H         4.55768188477861   -3.90566345696539    4.78709109442676
H         4.63482403172907   -2.91771977881726    6.33926783958994
H         5.87348555226088   -2.88403852960734    4.97624538269289
O        -1.71612703005176   -4.14584661943401   -1.68164465445702
H        -1.47475967710539   -3.53322053544416   -2.42421235499646
C        -0.58604968937084   -4.91568095467738   -1.32750703189380
H        -0.45003647298456   -5.64512624658434   -2.11329115759004
H        -0.97734981855176   -5.26258386917884   -0.31868701828718
H         0.30094662189185   -4.36307858574502   -1.15901676862506
O        -0.70405902699413   -3.07025275064266   -4.59351096336171
H        -1.59468243621029   -2.89479219547188   -4.43734385901100
C        -0.74731522018544   -4.10276889369411   -5.58627501733529
H        -1.78717355090628   -4.26861248259957   -6.04420916572770
H        -0.53573376026848   -4.98491412687836   -4.91166845567409
H         0.11655310364642   -4.11780028367553   -6.23714382327472
O         8.21784274207599   -0.06506953034437   -4.43383142326875
H         8.09717430237743   -0.79116386665762   -4.97970319911591
C         7.03900380431848    0.66771963374975   -4.31110889132248
H         6.49330991378895    0.28320632240483   -3.44693496146365
H         6.36207043852246    0.53549951398575   -5.23887159614815
H         7.28396792390591    1.68667290557620   -4.25206642736059
O         7.94443726253213   -6.67359413429731   -1.12220500762962
H         8.26915061156433   -5.81390106136886   -1.53106120430873
C         9.11109158043744   -7.46572467337098   -1.29230880218500
H         9.99709070375264   -6.83835569433818   -1.12023123527058
H         8.99752435330823   -8.10181874031184   -2.18342961246875
H         9.08462588960043   -8.31979815936291   -0.55672659401358
O        -2.54633560574005    4.54306874945442   -0.35073511726046
H        -1.74065417457414    4.50612854933551    0.17793168704963
C        -2.25930147545363    4.38647207751180   -1.74654580378377
H        -2.83866554775706    5.21887190941849   -2.13721424775182
H        -2.73686683600827    3.49283907819858   -2.21644044560071
H        -1.21305733902092    4.44464916119435   -1.99317555229902
O         9.97761086951504    1.02495267548581   -2.24135518637093
H         9.24026415924193    0.41218304823848   -2.56533659570703
C        11.09997909262807    0.13004983437981   -2.47308676193028
H        10.94318279241066   -0.84875791387555   -1.80897787085090
H        11.98113652821771    0.62606378276491   -2.18034804426680
H        11.19183319865255   -0.03730675492126   -3.49343841567849
O        -0.00917146216517    3.88067998841100    6.23924750649578
H        -0.42071549226078    3.50920840924683    5.42403169633744
C         1.19769685607873    4.57059956162417    5.73498707525239
H         1.83582408962783    4.94579841836941    6.54430450573200
H         1.09096206749700    5.49717577545258    5.10899758906063
H         1.70076420309224    3.88475932859688    5.03449004564099
O         5.83769557471345   -5.49232058935624   -4.99949486381126
H         5.03630333217280   -5.03314764854098   -5.22886061760960
C         6.62710493746853   -4.79265147361042   -3.97729686738847
H         6.12229934321640   -4.33735479090302   -3.11840063964438
H         7.12692760460107   -3.94523583258875   -4.45781642505725
H         7.24735416622249   -5.45038382468063   -3.52051405139863
O        -3.04670270448126    6.72404418953876    1.48132359927655
H        -3.08003220606352    5.94727509344036    0.83369845790694
C        -3.10850341036437    6.07693881153120    2.74074901594392
H        -2.74160360672214    6.79374332044759    3.45389819224219
H        -2.38440125679778    5.18733832302863    2.81415824940640
H        -4.04848874013681    5.65173699122951    3.03636133930904
O         5.03071014421251   -0.74536017656261    0.73784349048978
H         4.58208494311913   -1.58694196949844    0.70107211463566
C         5.62121027646269   -0.44867250460051    2.04959531099434
H         6.53984157540188   -1.05390548346227    2.10438353620957
H         5.00424466680777   -0.61236983607287    2.89010468374186
H         5.91772502975427    0.62355336157283    2.03851790078748
O        -2.47984155837145   -0.06063191579357   -3.66411340341862
H        -2.36897558957211   -0.78335610524614   -3.04159159087394
C        -3.04548605339504    0.94799216432317   -2.89306303813524
H        -3.90705892631704    0.60793892843130   -2.29004225974321
H        -3.35943973137842    1.65542436914341   -3.66845704330875
H        -2.34571138669574    1.42388810302449   -2.24539696337360
O         6.91030008890628   -4.09418587454172   -7.04894606499517
H         6.50853752919337   -4.49711702099554   -6.24218424434055
C         7.42828069893870   -5.16809373119922   -7.73966633691470
H         7.41167729625000   -5.04144385655495   -8.80707629972490
H         6.91219318061683   -6.13704131870666   -7.60991832601946
H         8.41544688018535   -5.25942193730314   -7.43035582262279
O         2.50794624018424    3.71198201208795   -8.00227831815897
H         1.48209233356961    3.89041591046942   -8.02982742031010
C         2.97687587559141    2.45808635713459   -8.29457882451009
H         4.04266992529688    2.44833144607616   -8.09365730032368
H         2.69229304681819    2.04810863611259   -9.21520546504217
H         2.54789124393017    1.72962230082658   -7.54643196239251
O        -4.03080220062523    6.48446003115869    6.27768417034790
H        -4.34909388976111    5.74745195702278    6.77221852659123
C        -3.00177837720949    7.16049069746195    6.91164515879190
H        -3.26053387228244    7.60662297168208    7.89325459990413
H        -2.53749064207513    8.08362571450358    6.36625027052560
H        -2.23839412054411    6.42460992902386    7.11992640251761
O         0.93259978994254    7.74550232389178    3.06015376853170
H         0.67731351187859    8.59192752906909    2.72442140218386
C         2.34716738571893    7.83295539889623    3.36130446014090
H         2.60015707154400    7.39708087414013    4.31791159740043
H         2.58248093768901    8.89577773836806    3.48704862120730
H         3.01017442932796    7.44366409323037    2.46697292784239
O         5.68783459773802    8.09020686420247   -0.66652674989843
H         5.11859151620920    7.38093351314948   -1.04813738627923
C         6.66439623922822    8.67596780078636   -1.60060398982168
H         6.29330437255504    8.85230875400038   -2.55415335141451
H         7.50051487899637    8.02283498847241   -1.70192832705206
H         7.11112564652849    9.62625828755099   -1.22171585488532
O        -8.63017489057978   -4.08711863120870   -4.40345071444380
H        -7.95546143626621   -4.76797255882883   -4.16140847747520
C        -9.94123281092032   -4.12557784370215   -3.79764863405276
H       -10.08079815004095   -5.17139724726155   -3.57953734284926
H       -10.63752202823174   -3.75669379666395   -4.52816598701181
H       -10.00776713745168   -3.52442620866628   -2.86653095457802
O        -2.84479120228843    2.33882397580275    3.45261272432152
H        -1.87471396894275    2.33542694569625    3.28365204484362
C        -3.21198712328010    2.74320723894038    4.75379797373947
H        -3.07264551033244    1.96909527211450    5.54210582675362
H        -4.28679408118867    2.89464463409868    4.79823456992637
H        -2.79456066581043    3.70262907407179    5.03642412493782
O        -6.47451678104160    3.18445205847692   -0.08005775044609
H        -6.49435341950454    4.03126775566838    0.33821919864262
C        -5.28410715461377    2.49495162675919    0.41261897978414
H        -5.29310162633996    1.59402898831582   -0.26278420284608
H        -5.34563180172080    2.31696285174407    1.53700915638369
H        -4.47452951761353    3.20808314482733    0.13731992019177
O        -3.83316595061119    1.19158690372610   -7.52209291590798
H        -3.86938636132776    0.35203100888214   -7.02092751277307
C        -3.97928887539096    2.39024954144641   -6.73604784710985
H        -3.45406299741354    2.54225404237349   -5.81107736199413
H        -5.13032503276297    2.52578907779270   -6.59947255422517
H        -3.74680035947220    3.26791192045258   -7.34535796551890
O         2.62067493986410    6.98568086886526   -6.99511602432352
H         2.82102295080565    5.99088275502607   -7.12363721317047
C         3.69975660663831    7.92451446400272   -6.69260116004307
H         4.30380791180536    7.40962061793895   -5.96052528470356
H         3.37367008485088    8.97406004022603   -6.43479729211933
H         4.27693653622256    7.96773594789012   -7.61995162012287
O        -1.12020537257080  -10.43835585544145   -2.44823692750992
H        -1.81388768750832  -10.70988707360178   -3.02182204533851
C        -0.01652252012106  -11.35442650272796   -2.53795760020856
H         0.89985129385586  -10.77867806522259   -2.45984775345594
H        -0.02732080421417  -11.82712323271140   -3.49791416054081
H        -0.23925980520366  -12.07994061153437   -1.76866155557113
O         5.10852189619222  -10.52825415603293   -1.14865768628866
H         4.46746115415461   -9.97362692890195   -0.68017979536759
C         5.84465662016807   -9.64286464101030   -2.05424898939562
H         6.63447315058527   -9.24496048111918   -1.40038849294801
H         5.38352654356534   -8.89341100347801   -2.58455128176731
H         6.33312240657457  -10.26287489362139   -2.76482383623935
O        -5.04631359892141   -9.20383866730854   -2.92449659573305
H        -5.84799439525581   -8.92592331603236   -2.44189950803990
C        -3.95218565671241   -8.36254723304610   -2.68925035715462
H        -4.01580668811086   -7.38379157601023   -3.35124470349672
H        -3.03982803814603   -8.94441127759312   -2.71052210479457
H        -3.87805486958157   -8.07547625734948   -1.59345486745123
O        -8.03157179544921    0.70528074777111   -1.47694748510555
H        -7.50452983122644    1.37890984628485   -0.82188265304781
C        -9.45983535828160    0.66289156112270   -1.66354882406218
H        -9.72261475936259    1.24085471177395   -2.60627220628769
H       -10.12002803374043    0.93820900723190   -0.89458828990606
H        -9.58643854332540   -0.43120845834899   -1.90600323068657
O         7.45094127457632   -1.11283231640455    4.27900388421735
H         7.17873140136261   -0.18343698891428    4.47718274500504
C         8.77203939502471   -1.24290686064029    3.88250222953298
H         9.14260212816129   -0.53447533088149    3.15404060386007
H         8.80665218524587   -2.23840112595951    3.34085901279574
H         9.47464082476150   -1.08069398272871    4.79059396790810
O         6.83386055613486   -8.06823238460840   -4.52697151233222
H         6.70597990124866   -7.16873437044784   -4.20831964119532
C         5.73489083249222   -8.30934589693879   -5.40472451391816
H         5.77472221553511   -9.33037057254436   -5.65772627944732
H         5.99754480937608   -7.77641437791868   -6.36929045390566