      -----------------------------------------------------------      
     |                   =====================                   |     
     |                           x T B                           |     
     |                   =====================                   |     
     |                         S. Grimme                         |     
     |          Mulliken Center for Theoretical Chemistry        |     
     |                    University of Bonn                     |     
      -----------------------------------------------------------      

   * xtb version 6.4.1 (afa7bdf) compiled by 'ehlert@majestix' on 2021-06-10

   xtb is free software: you can redistribute it and/or modify it under
   the terms of the GNU Lesser General Public License as published by
   the Free Software Foundation, either version 3 of the License, or
   (at your option) any later version.
   
   xtb is distributed in the hope that it will be useful,
   but WITHOUT ANY WARRANTY; without even the implied warranty of
   MERCHANTABILITY or FITNESS FOR A PARTICULAR PURPOSE.  See the
   GNU Lesser General Public License for more details.
   
   Cite this work as:
   * C. Bannwarth, E. Caldeweyher, S. Ehlert, A. Hansen, P. Pracht,
     J. Seibert, S. Spicher, S. Grimme, WIREs Comput. Mol. Sci., 2020, 11,
     e01493. DOI: 10.1002/wcms.1493
   
   for GFN2-xTB:
   * C. Bannwarth, S. Ehlert and S. Grimme., J. Chem. Theory Comput., 2019,
     15, 1652-1671. DOI: 10.1021/acs.jctc.8b01176
   for GFN1-xTB:
   * S. Grimme, C. Bannwarth, P. Shushkov, J. Chem. Theory Comput., 2017,
     13, 1989-2009. DOI: 10.1021/acs.jctc.7b00118
   for GFN0-xTB:
   * P. Pracht, E. Caldeweyher, S. Ehlert, S. Grimme, ChemRxiv, 2019, preprint.
     DOI: 10.26434/chemrxiv.8326202.v1
   for GFN-FF:
   * S. Spicher and S. Grimme, Angew. Chem. Int. Ed., 2020, 59, 15665-15673.
     DOI: 10.1002/anie.202004239
   
   for DFT-D4:
   * E. Caldeweyher, C. Bannwarth and S. Grimme, J. Chem. Phys., 2017,
     147, 034112. DOI: 10.1063/1.4993215
   * E. Caldeweyher, S. Ehlert, A. Hansen, H. Neugebauer, S. Spicher,
     C. Bannwarth and S. Grimme, J. Chem. Phys., 2019, 150, 154122.
     DOI: 10.1063/1.5090222
   * E. Caldeweyher, J.-M. Mewes, S. Ehlert and S. Grimme, Phys. Chem. Chem. Phys.
     2020, 22, 8499-8512. DOI: 10.1039/D0CP00502A
   
   for sTDA-xTB:
   * S. Grimme and C. Bannwarth, J. Chem. Phys., 2016, 145, 054103.
     DOI: 10.1063/1.4959605
   
   in the mass-spec context:
   * V. Asgeirsson, C. Bauer and S. Grimme, Chem. Sci., 2017, 8, 4879.
     DOI: 10.1039/c7sc00601b
   * J. Koopman and S. Grimme, ACS Omega 2019, 4, 12, 15120-15133.
     DOI: 10.1021/acsomega.9b02011
   
   for metadynamics refer to:
   * S. Grimme, J. Chem. Theory Comput., 2019, 155, 2847-2862
     DOI: 10.1021/acs.jctc.9b00143
   
   for SPH calculations refer to:
   * S. Spicher and S. Grimme, J. Chem. Theory Comput., 2021, 17, 1701-1714
     DOI: 10.1021/acs.jctc.0c01306
   
   with help from (in alphabetical order)
   P. Atkinson, C. Bannwarth, F. Bohle, G. Brandenburg, E. Caldeweyher
   M. Checinski, S. Dohm, S. Ehlert, S. Ehrlich, I. Gerasimov, J. Koopman
   C. Lavigne, S. Lehtola, F. März, M. Müller, F. Musil, H. Neugebauer
   J. Pisarek, C. Plett, P. Pracht, J. Seibert, P. Shushkov, S. Spicher
   M. Stahn, M. Steiner, T. Strunk, J. Stückrath, T. Rose, and J. Unsleber
   
 * started run on 2022/02/25 at 22:16:34.384     

           -------------------------------------------------
          |                Calculation Setup                |
           -------------------------------------------------

          program call               : /ihome/jkeith/amm503/codes/xtb-6.4.1/bin/xtb 1h2o.120meoh.pm.gfn2.eq1.xyz --md --input 1h2o.120meoh.pm.gfn2.eq1-xtb.md.prod1-gfn2.500k.wallpot.inp --gfn 2 --charge 0 --verbose
          hostname                   : smp-n86
          coordinate file            : 1h2o.120meoh.pm.gfn2.eq1.xyz
          xtbhome directory          : /ihome/jkeith/amm503
          path for xtb               : /ihome/jkeith/amm503
          xcontrol input file        : 1h2o.120meoh.pm.gfn2.eq1-xtb.md.prod1-gfn2.500k.wallpot.inp
          omp threads                :                    12
          number of atoms            :                   723
          number of electrons        :                  1688
          charge                     :                     0
          spin                       :                   0.0
          first test random number   :      0.25924560801865
          a pointer address          :            0x3E84BBD7
          random memory content      :      3FD0977AE4049792

$$$$$$$$$$$$$$$$$$$$$$$$$$$$$$$$$$$$$$$$$$$$$$$$$$$$$$$$$$$$$$$$$$$$$$$$
 CONSTRAINTS & SCANS: DEBUG SECTION
$$$$$$$$$$$$$$$$$$$$$$$$$$$$$$$$$$$$$$$$$$$$$$$$$$$$$$$$$$$$$$$$$$$$$$$$
   ID    Z sym.   atoms
    1    8 O      1, 4, 10, 16, 22, 28, 34, 40, 46, 52, 58, 64, 70, 76, 82,
                  88, 94, 100, 106, 112, 118, 124, 130, 136, 142, 148, 154,
                  160, 166, 172, 178, 184, 190, 196, 202, 208, 214, 220, 226,
                  232, 238, 244, 250, 256, 262, 268, 274, 280, 286, 292, 298,
                  304, 310, 316, 322, 328, 334, 340, 346, 352, 358, 364, 370,
                  376, 382, 388, 394, 400, 406, 412, 418, 424, 430, 436, 442,
                  448, 454, 460, 466, 472, 478, 484, 490, 496, 502, 508, 514,
                  520, 526, 532, 538, 544, 550, 556, 562, 568, 574, 580, 586,
                  592, 598, 604, 610, 616, 622, 628, 634, 640, 646, 652, 658,
                  664, 670, 676, 682, 688, 694, 700, 706, 712, 718
    2    1 H      2, 3, 5, 7-9, 11, 13-15, 17, 19-21, 23, 25-27, 29, 31-33,
                  35, 37-39, 41, 43-45, 47, 49-51, 53, 55-57, 59, 61-63, 65,
                  67-69, 71, 73-75, 77, 79-81, 83, 85-87, 89, 91-93, 95,
                  97-99, 101, 103-105, 107, 109-111, 113, 115-117, 119,
                  121-123, 125, 127-129, 131, 133-135, 137, 139-141, 143,
                  145-147, 149, 151-153, 155, 157-159, 161, 163-165, 167,
                  169-171, 173, 175-177, 179, 181-183, 185, 187-189, 191,
                  193-195, 197, 199-201, 203, 205-207, 209, 211-213, 215,
                  217-219, 221, 223-225, 227, 229-231, 233, 235-237, 239,
                  241-243, 245, 247-249, 251, 253-255, 257, 259-261, 263,
                  265-267, 269, 271-273, 275, 277-279, 281, 283-285, 287,
                  289-291, 293, 295-297, 299, 301-303, 305, 307-309, 311,
                  313-315, 317, 319-321, 323, 325-327, 329, 331-333, 335,
                  337-339, 341, 343-345, 347, 349-351, 353, 355-357, 359,
                  361-363, 365, 367-369, 371, 373-375, 377, 379-381, 383,
                  385-387, 389, 391-393, 395, 397-399, 401, 403-405, 407,
                  409-411, 413, 415-417, 419, 421-423, 425, 427-429, 431,
                  433-435, 437, 439-441, 443, 445-447, 449, 451-453, 455,
                  457-459, 461, 463-465, 467, 469-471, 473, 475-477, 479,
                  481-483, 485, 487-489, 491, 493-495, 497, 499-501, 503,
                  505-507, 509, 511-513, 515, 517-519, 521, 523-525, 527,
                  529-531, 533, 535-537, 539, 541-543, 545, 547-549, 551,
                  553-555, 557, 559-561, 563, 565-567, 569, 571-573, 575,
                  577-579, 581, 583-585, 587, 589-591, 593, 595-597, 599,
                  601-603, 605, 607-609, 611, 613-615, 617, 619-621, 623,
                  625-627, 629, 631-633, 635, 637-639, 641, 643-645, 647,
                  649-651, 653, 655-657, 659, 661-663, 665, 667-669, 671,
                  673-675, 677, 679-681, 683, 685-687, 689, 691-693, 695,
                  697-699, 701, 703-705, 707, 709-711, 713, 715-717, 719,
                  721-723
    3    6 C      6, 12, 18, 24, 30, 36, 42, 48, 54, 60, 66, 72, 78, 84, 90,
                  96, 102, 108, 114, 120, 126, 132, 138, 144, 150, 156, 162,
                  168, 174, 180, 186, 192, 198, 204, 210, 216, 222, 228, 234,
                  240, 246, 252, 258, 264, 270, 276, 282, 288, 294, 300, 306,
                  312, 318, 324, 330, 336, 342, 348, 354, 360, 366, 372, 378,
                  384, 390, 396, 402, 408, 414, 420, 426, 432, 438, 444, 450,
                  456, 462, 468, 474, 480, 486, 492, 498, 504, 510, 516, 522,
                  528, 534, 540, 546, 552, 558, 564, 570, 576, 582, 588, 594,
                  600, 606, 612, 618, 624, 630, 636, 642, 648, 654, 660, 666,
                  672, 678, 684, 690, 696, 702, 708, 714, 720
> wall
-> potential = logfermi
-> sphere: 23.62158, all
--> 1: 23.62158
--> 2: all
spherical wallpotenial with radius   12.5000030 Å
-> sphere: 2.83459, 1,2,3
--> 1: 2.83459
--> 2: 1
--> 3: 2
--> 4: 3
spherical wallpotenial with radius    1.5000006 Å
-> temp = 300.0
-> beta = 6
$$$$$$$$$$$$$$$$$$$$$$$$$$$$$$$$$$$$$$$$$$$$$$$$$$$$$$$$$$$$$$$$$$$$$$$$

molecular fragmentation (1/2 indicates fragments):
111222222222222222222222222222222222222222222222222222222222222222222222
222222222222222222222222222222222222222222222222222222222222222222222222
222222222222222222222222222222222222222222222222222222222222222222222222
222222222222222222222222222222222222222222222222222222222222222222222222
222222222222222222222222222222222222222222222222222222222222222222222222
222222222222222222222222222222222222222222222222222222222222222222222222
222222222222222222222222222222222222222222222222222222222222222222222222
222222222222222222222222222222222222222222222222222222222222222222222222
222222222222222222222222222222222222222222222222222222222222222222222222
222222222222222222222222222222222222222222222222222222222222222222222222
222
# atoms in fragment 1/2:     3   720
 fragment masses (1/2) :       18.02     3845.03
CMA distance (Bohr)    :   2.924
constraining FC (au)   :  0.0500

           -------------------------------------------------
          |                 G F N 2 - x T B                 |
           -------------------------------------------------

        Reference                      10.1021/acs.jctc.8b01176
      * Hamiltonian:
        H0-scaling (s, p, d)           1.850000    2.230000    2.230000
        zeta-weighting                 0.500000
      * Dispersion:
        s8                             2.700000
        a1                             0.520000
        a2                             5.000000
        s9                             5.000000
      * Repulsion:
        kExp                           1.500000    1.000000
        rExp                           1.000000
      * Coulomb:
        alpha                          2.000000
        third order                    shell-resolved
        anisotropic                    true
        a3                             3.000000
        a5                             4.000000
        cn-shift                       1.200000
        cn-exp                         4.000000
        max-rad                        5.000000


          ...................................................
          :                      SETUP                      :
          :.................................................:
          :  # basis functions                1446          :
          :  # atomic orbitals                1446          :
          :  # shells                          964          :
          :  # electrons                      1688          :
          :  max. iterations                   250          :
          :  Hamiltonian                  GFN2-xTB          :
          :  restarted?                      false          :
          :  GBSA solvation                  false          :
          :  PC potential                    false          :
          :  electronic temp.          300.0000000     K    :
          :  accuracy                    1.0000000          :
          :  -> integral cutoff          0.2500000E+02      :
          :  -> integral neglect         0.1000000E-07      :
          :  -> SCF convergence          0.1000000E-05 Eh   :
          :  -> wf. convergence          0.1000000E-03 e    :
          :  Broyden damping             0.4000000          :
          ...................................................

 iter      E             dE          RMSdq      gap      omega  full diag
   1   -999.4904888 -0.999490E+03  0.424E+00    8.67       0.0  T
   2  -1000.6836788 -0.119319E+01  0.229E+00    8.53       1.0  T
   3  -1000.7254834 -0.418046E-01  0.723E-01    8.03       1.0  T
   4  -1000.7316099 -0.612658E-02  0.125E-01    7.84       1.0  T
   5  -1000.7321291 -0.519214E-03  0.434E-02    7.92       1.0  T
   6  -1000.7322061 -0.769537E-04  0.136E-02    7.92       1.0  T
   7  -1000.7322164 -0.102736E-04  0.365E-03    7.91       1.0  T
   8  -1000.7322169 -0.490429E-06  0.136E-03    7.91       2.7  T
   9  -1000.7322169 -0.720464E-07  0.257E-04    7.91      14.5  T
  10  -1000.7322169 -0.464468E-08  0.753E-05    7.91      49.4  T

   *** convergence criteria satisfied after 10 iterations ***

 SCC (total)                   0 d,  0 h,  0 min,  4.459 sec
 SCC setup                      ...        0 min,  0.011 sec (  0.253%)
 Dispersion                     ...        0 min,  0.068 sec (  1.517%)
 classical contributions        ...        0 min,  0.003 sec (  0.069%)
 integral evaluation            ...        0 min,  0.176 sec (  3.951%)
 iterations                     ...        0 min,  2.283 sec ( 51.197%)
 molecular gradient             ...        0 min,  1.884 sec ( 42.242%)
 printout                       ...        0 min,  0.034 sec (  0.768%)

         :::::::::::::::::::::::::::::::::::::::::::::::::::::
         ::                     SUMMARY                     ::
         :::::::::::::::::::::::::::::::::::::::::::::::::::::
         :: total energy            -991.881189902216 Eh    ::
         :: gradient norm              0.888460322642 Eh/a0 ::
         :: HOMO-LUMO gap              7.912937717616 eV    ::
         ::.................................................::
         :: HOMO orbital eigv.        -9.864251951715 eV    ::
         :: LUMO orbital eigv.        -1.951314234099 eV    ::
         ::.................................................::
         :: SCC energy             -1000.732216940265 Eh    ::
         :: -> isotropic ES            2.919379002688 Eh    ::
         :: -> anisotropic ES         -0.030408537494 Eh    ::
         :: -> anisotropic XC          0.075634996074 Eh    ::
         :: -> dispersion             -0.584150687638 Eh    ::
         :: repulsion energy           8.762031302355 Eh    ::
         :: add. restraining           0.024891445283 Eh    ::
         :: total charge              -0.000000000000 e     ::
         ::.................................................::
         :: atomisation energy       151.840924134917 Eh    ::
         :::::::::::::::::::::::::::::::::::::::::::::::::::::

           -------------------------------------------------
          |                Property Printout                |
           -------------------------------------------------

           -------------------------------------------------
          | TOTAL ENERGY             -991.881189902216 Eh   |
          | GRADIENT NORM               0.888460322642 Eh/α |
          | HOMO-LUMO GAP               7.912937717616 eV   |
           -------------------------------------------------
           ------------------------------------------------- 
          |               Molecular Dynamics                |
           ------------------------------------------------- 
 trajectories on xtb.trj or xtb.trj.<n>
 
 MD time /ps        :    5.00
 dt /fs             :    1.00
 SCC accuracy       :    1.00
 temperature /K     :  500.00
 max steps          :  5000
 block length (av.) :  5000
 dumpstep(trj) /fs  :    5.00     5
 dumpstep(coords)/fs: 1000.00  1000
 H atoms mass (amu) :     1
 # deg. of freedom  :  2169
 SHAKE off
 Berendsen THERMOSTAT on
 RESTART
         time (ps)    <Epot>      Ekin   <T>   T     Etot
      0    0.00      0.00000   1.7563    0.    0.  -990.07994
est. speed in wall clock h for 100 ps :101.69
    200    0.20   -986.86722   1.6441  489.  479.  -990.13441
    400    0.40   -989.34229   1.7294  495.  504.  -990.13085
    600    0.60   -990.17958   1.7579  499.  512.  -990.15848
    800    0.80   -990.59870   1.7388  500.  506.  -990.16211
   1000    1.00   -990.84551   1.7396  500.  507.  -990.13194
   1200    1.20   -991.01087   1.6975  500.  494.  -990.15658
   1400    1.40   -991.12568   1.7101  499.  498.  -990.12076
   1600    1.60   -991.21337   1.7752  499.  517.  -990.13633
   1800    1.80   -991.28073   1.7563  498.  511.  -990.09197
   2000    2.00   -991.33334   1.7230  498.  502.  -990.08143
   2200    2.20   -991.37605   1.7557  498.  511.  -990.12125
   2400    2.40   -991.41343   1.7319  498.  504.  -990.10427
   2600    2.60   -991.44457   1.7267  498.  503.  -990.11309
   2800    2.80   -991.47343   1.7379  499.  506.  -990.08999
   3000    3.00   -991.49713   1.7134  499.  499.  -990.10319
   3200    3.20   -991.51943   1.7126  499.  499.  -990.14033
   3400    3.40   -991.53845   1.7137  499.  499.  -990.13425
   3600    3.60   -991.55382   1.6905  499.  492.  -990.11664
   3800    3.80   -991.56872   1.7396  499.  507.  -990.09822
   4000    4.00   -991.58289   1.7585  499.  512.  -990.10303
   4200    4.20   -991.59543   1.7645  499.  514.  -990.17235
   4400    4.40   -991.60748   1.7584  500.  512.  -990.12289
   4600    4.60   -991.61795   1.7060  500.  497.  -990.12124
   4800    4.80   -991.62686   1.7101  499.  498.  -990.10893
 average properties 
 Epot               :  -991.635348933765     
 Epot (accurate SCC):  -991.829833664255     
 Ekin               :   1.71496503480077     
 Etot               :  -989.920383898964     
 T                  :   499.348673895609     
 normal exit of md()

------------------------------------------------------------------------
 unit  open   action     filename
  129 false : read       1h2o.120meoh.pm.gfn2.eq1-xtb.md.prod1-gfn2.500k.wallpot.inp
  130 false : read       1h2o.120meoh.pm.gfn2.eq1.xyz
  131 false : read       1h2o.120meoh.pm.gfn2.eq1-xtb.md.prod1-gfn2.500k.wallpot.inp
  132 false : read       mdrestart
  133 false : written    xtb.trj
  134 false : written    scoord.1
  135 false : written    scoord.2
  136 false : written    scoord.3
  137 false : written    scoord.4
  138 false : replaced   mdrestart
  139 false : created    xtbmdok
  140 false : written    xtbrestart

------------------------------------------------------------------------
 * finished run on 2022/02/26 at 03:43:56.047     
------------------------------------------------------------------------
 total:
 * wall-time:     0 d,  5 h, 27 min, 21.663 sec
 *  cpu-time:     2 d,  6 h,  8 min, 30.627 sec
 * ratio c/w:     9.923 speedup
 SCF:
 * wall-time:     0 d,  0 h,  0 min,  4.467 sec
 *  cpu-time:     0 d,  0 h,  0 min, 46.255 sec
 * ratio c/w:    10.356 speedup
 MD:
 * wall-time:     0 d,  5 h, 27 min, 16.687 sec
 *  cpu-time:     2 d,  6 h,  7 min, 40.915 sec
 * ratio c/w:     9.923 speedup

normal termination of xtb
