723
 energy: -993.857916651343 gnorm: 0.002235757949 xtb: 6.4.1 (afa7bdf)
O        -0.47437488337653    1.48350165907292   -0.84487739338916
H        -0.63211630291405    1.45622749506555   -1.80339895743723
H         0.48057722562347    1.65510803192585   -0.74582598828699
O         7.05788769719734   -7.15972943081936    3.19325306021835
H         6.36855385613616   -6.59994665702061    3.62469721581826
C         7.96915015588303   -6.28771609983911    2.55295003391382
H         8.69842709313573   -6.90653483763533    2.03003000272191
H         8.48903642384044   -5.66544521026062    3.28503703395905
H         7.45039331458456   -5.64582893701062    1.84045653171240
O        -9.76674571333801   -6.65930300332444   -0.25122469384966
H       -10.71298557534375   -6.48171357156162   -0.24035167939856
C        -9.50460486675070   -7.73842502848164   -1.13429719695171
H        -8.42918678409251   -7.90802204226899   -1.11024878957363
H        -9.81021752162597   -7.49168735071481   -2.15397792495428
H       -10.02315434211727   -8.64532117207800   -0.81190049542455
O        -9.04726984650272    2.77670611640365    2.39794469272419
H        -8.38560612675872    2.30857230825595    2.93118661283192
C        -8.70596372164148    4.14447711872226    2.37323160571235
H        -9.48185021017190    4.65145383948993    1.80123436220885
H        -7.73873700803131    4.31069728805378    1.88995340638435
H        -8.67473555297153    4.56858349550850    3.38115776747620
O        -3.73746323980447    7.25529551509879    4.62990070790928
H        -3.68115916493351    6.93303666163971    5.55887042723399
C        -5.09595817466146    7.41529993303662    4.26042845538974
H        -5.09802207947590    7.82292860801960    3.25069672995843
H        -5.60151367321599    8.11092021083598    4.93441528528981
H        -5.61935938683185    6.45795283470310    4.27356823570323
O         5.96460695248842    7.84188174176234    1.32123467643053
H         5.70107375805386    8.69572881134588    0.93636953957080
C         7.27918418701276    7.55732221642428    0.90884226422976
H         7.54101661153381    6.58553231146594    1.32537735572084
H         7.98739085374478    8.30514863560566    1.28310510665557
H         7.35278994418662    7.51197107753104   -0.18212320136298
O         4.27578800920985    1.76789031730565    5.48748980234211
H         3.35797513779347    2.03808795569172    5.29591006156854
C         4.39046000518113    0.36302161082253    5.32062055609695
H         5.43200057182438    0.11374497705935    5.51418709443650
H         4.12685477635336    0.06695773686517    4.30303738559308
H         3.76465663652857   -0.17374734221058    6.03514074354418
O         4.58144823196657   -3.88523218654124   -2.54153041266021
H         5.39807888733297   -4.38453383655352   -2.37591432693509
C         4.46665950823815   -2.83352746555930   -1.59884557692756
H         3.44185184968835   -2.47141500455833   -1.65842481407558
H         5.14198311816623   -2.01052940328137   -1.84216387566146
H         4.67126074365593   -3.18227128072535   -0.58710626499145
O         8.87354268571057    5.82098155568952   -4.96556498859875
H         8.03682028599061    6.23639919664641   -4.68003928539786
C         9.13109563783185    6.22652518298896   -6.28971955013326
H         9.99311430794643    5.65797114668531   -6.63941706222924
H         9.37279151300351    7.29419299933698   -6.33685526552517
H         8.27688347548128    6.02496020689524   -6.94016539199417
O         2.94617345158443   -2.41857330756931    6.78775372359117
H         2.27053726015349   -2.22183010969285    6.10277778682697
C         3.41238816994113   -3.73645592021162    6.55841051677820
H         4.21483482963299   -3.92320332706337    7.26990987509242
H         3.81040142566018   -3.83884363969434    5.54887667598872
H         2.61574882936820   -4.46898872564903    6.71492312873145
O        -1.74927149108928   -7.83599167746321    0.05654144349461
H        -2.18469436704644   -7.64351087723073    0.91878169551252
C        -1.47346290847201   -9.22021526560196    0.00720039532295
H        -0.86111542429927   -9.39592048003806   -0.87610929837426
H        -2.39677067346854   -9.79908352789015   -0.08048347088684
H        -0.93409737450063   -9.54791156497021    0.89852020143260
O         4.01605743315725   -7.81484237403591    5.56203002200321
H         4.32050493850011   -8.57855395543435    5.02890000394353
C         2.61282277347477   -7.90257438970319    5.69423424021126
H         2.29103352506593   -7.05495631458030    6.29630940450467
H         2.32822202671526   -8.82941936376291    6.19993530761758
H         2.12293523981067   -7.86060882680001    4.71909874784531
O         6.12926550787559    5.15482636863150   -2.14281117952153
H         7.07595565787935    5.33068714246799   -1.99176330350682
C         5.57933357189285    4.71874078270862   -0.91262590477652
H         4.52377661036352    4.52653641572172   -1.08616679936437
H         5.67956137044696    5.48561679875468   -0.14460045786842
H         6.06969518211686    3.80406951903642   -0.57264291471241
O         6.69352430294281   -5.78620644841980   -2.64355950978874
H         6.18284973493044   -6.38691986686037   -3.21747076395169
C         8.06080668363591   -5.99596745684831   -2.90175973506732
H         8.61883856822930   -5.26666355751348   -2.31513687108007
H         8.29457332395912   -5.85634502971154   -3.96115060619821
H         8.37299802179764   -7.00173293801063   -2.60164554689112
O        -3.92142225827407   -1.85206794619878   -3.48097049807704
H        -3.86898236636598   -2.82492716901096   -3.56942075322836
C        -5.15742721733966   -1.53931321793106   -2.86158324721435
H        -5.99219166256734   -2.00026122924653   -3.39301207456617
H        -5.26548704939650   -0.45556151848144   -2.88745321811267
H        -5.15136514756625   -1.87289140186977   -1.82260301229079
O        -4.14638022686136    8.56239917161465    1.30234739162776
H        -3.17454931667157    8.49768103410912    1.26077082901379
C        -4.62387870961835    8.88966285941213    0.01786864753005
H        -5.71054124771819    8.81934443245028    0.05007703650014
H        -4.24231450963192    8.20226615248207   -0.74030713494867
H        -4.34323399956775    9.91281208181009   -0.25635773317896
O         0.23503457438651    0.57021184696818    4.06320799962313
H         0.71197842049731    1.32798625246788    4.44831917578837
C         0.58364040457812    0.48386888057442    2.68374007656958
H        -0.00044084387182   -0.32760426688637    2.25469846671987
H         1.64690025503001    0.27180465250563    2.56443784903249
H         0.33904278810077    1.40892255472446    2.16201589824382
O        -5.57638140681608   -3.66539709016638    5.12237273699223
H        -4.66514054422803   -3.44439002612268    4.80891421764080
C        -5.86698747233543   -2.89281649137338    6.26362472143071
H        -6.90672905795299   -3.08575145602819    6.52790004698089
H        -5.74292722055731   -1.82772129597123    6.05880154015377
H        -5.22479596027827   -3.16955031958247    7.10506721480683
O         1.67088149637276   -2.44525434385347    9.21675249728163
H         2.12018504312842   -2.38517365211572    8.34385911803616
C         2.14939243670367   -3.60604958699957    9.86560266552890
H         1.68230826017463   -3.64465179514753   10.84966952449508
H         3.23371187160068   -3.56254484299697    9.99369004146778
H         1.88846338627437   -4.50395467402257    9.30187077549835
O        -3.79572752425165    0.49755416619318   -9.39205743151826
H        -3.16115484855969   -0.09823185429488   -8.93817699721229
C        -3.83018619215685    0.15138646118102  -10.75626366751503
H        -4.55016178998710    0.81128686608165  -11.23861484409002
H        -4.15216535638342   -0.88456172303250  -10.89314188641477
H        -2.85099242539368    0.28740408159697  -11.22578714471180
O         2.66139386398238   -2.91356575554558   -8.69667995801115
H         3.10071072859633   -3.68701863621901   -9.11583847339099
C         2.49445752019563   -3.21034534406169   -7.31396657137224
H         1.82829133435416   -2.45608697408472   -6.90021521100161
H         3.44721713939335   -3.17192967557405   -6.78244824939024
H         2.05195108408124   -4.19854756227371   -7.18149728268780
O         2.33436388208121   -9.82787217471821   -2.63796258155846
H         2.39411349274094   -8.94883747849068   -2.20676913342472
C         2.37922499695323  -10.81403574593647   -1.64128907034067
H         2.42667753220155  -11.78009075499066   -2.14337638546040
H         1.48159145585466  -10.78895180286437   -1.01236398115144
H         3.25999634149131  -10.70367754791561   -1.00075951461463
O        -6.21089699217622   -7.81495624418925   -0.89628574819040
H        -6.19185330144470   -6.85423589541221   -1.07168598252194
C        -5.00484255681669   -8.37790797976465   -1.35351758928438
H        -5.01373993221545   -9.42702890133292   -1.05839159119702
H        -4.13898355531402   -7.88382101144994   -0.90572160246363
H        -4.92369013700503   -8.31889059151646   -2.44330082519549
O         4.06386293608545    5.76203978742750    6.12585673460131
H         4.59341506381525    5.31715363451322    6.81776943466933
C         4.87051935111169    5.98315550909368    4.98222453557975
H         4.21142908371933    6.34389723700929    4.19372945296128
H         5.35949171345894    5.06161045404791    4.66514609484649
H         5.63659145386092    6.73519116048632    5.18570069025989
O        -5.32003178652041    7.27444878745068   -3.84258633952971
H        -6.01300371100526    7.10332444329097   -3.16931444369972
C        -5.27291358151298    6.15424655248602   -4.70089132401365
H        -4.39319775892024    6.26699185835287   -5.33340783410284
H        -6.16303171764839    6.10299509805250   -5.33467463548915
H        -5.18912619979492    5.22356918937043   -4.13620943112456
O         1.16036103138378   -0.84092690116348   -5.10262714343686
H         1.28762485279266    0.12258624343238   -5.15814048302879
C         2.18634189260288   -1.35987062620970   -4.27883659791061
H         2.00406723039975   -2.42663865239125   -4.17709999114933
H         2.17033064603576   -0.89110070798618   -3.29148720105465
H         3.16954100446143   -1.21706154091551   -4.73060474398621
O        -8.97631839763616    5.46931877660450   -4.19622608417997
H        -8.45452712628819    5.04460767292906   -4.90989546864247
C        -9.61048621468260    6.60514245504596   -4.73262382484587
H       -10.17757609158900    7.06920818305424   -3.92686619261177
H       -10.29765900473456    6.33236130825282   -5.53965096986878
H        -8.88150666861342    7.32693480673171   -5.11398515743459
O         4.97075245118920   -5.72861562146971    4.12775674286009
H         4.58506681115687   -6.37340645898086    4.76257282784037
C         4.10245149776986   -5.62159712675254    3.01426977995925
H         4.61798661222969   -5.02534398330246    2.26192456639469
H         3.16966653976358   -5.12572037868324    3.29594674299775
H         3.87438292601277   -6.60588178453891    2.60056396360801
O         2.62510475448466    4.60266571030119   -2.29168631254874
H         3.23242830862738    4.87198590430805   -3.01056106017099
C         1.43159117996799    5.34712324412683   -2.43037759060220
H         0.74526578880871    5.01086650831602   -1.65623623390944
H         0.98197853606966    5.18400272723266   -3.41144128238491
H         1.62309189525406    6.41633428129014   -2.30303432266253
O        -0.81145195934123    1.67413197368175   -3.56036572324123
H         0.06604068739722    1.77182009334149   -3.99027421265912
C        -1.53793430561087    0.67069831539817   -4.24982235092633
H        -2.42783820148990    0.45257160596916   -3.66353860795679
H        -0.94348200598211   -0.23639833050818   -4.35679755385247
H        -1.83068092958765    1.02853595936602   -5.23853157608621
O         3.86120068642653   -0.51329511735957    2.17728342708182
H         4.64885761089967   -0.40230723540156    1.61420877405311
C         3.41131911775175   -1.84604596153868    2.04636694362455
H         2.71666896964328   -2.03683996088069    2.86472574734928
H         4.24027604459126   -2.55201239363009    2.10360748707273
H         2.88852706976332   -1.98729226074635    1.09412366384450
O         6.17511832859483    2.61941092001771    3.73561527554897
H         5.46033904671332    2.38665740636803    4.36721738151312
C         5.61201734359983    2.91867852146399    2.47240266023716
H         6.44596324002219    3.09144324182265    1.79390493782610
H         5.00269179568028    3.82462062003331    2.51671337207479
H         5.00392819166342    2.08736228379483    2.10764276976387
O        -2.02747170989686   -0.99002917813730   -7.92310072411226
H        -2.55877159194513   -0.87902092453722   -7.10645768663363
C        -0.79525284569011   -0.28892038347338   -7.77867683806752
H        -0.20879738863046   -0.48987593805002   -8.67241389148564
H        -0.25229308518251   -0.63932567412796   -6.90144764195168
H        -0.96994958973394    0.78521508113601   -7.70236047256812
O        -1.15122336183287   -3.74045230983756   -2.02010544874013
H        -2.04891701106040   -3.64907617580854   -1.65228738929339
C        -0.46684812864580   -2.51999215066464   -1.80710604499629
H         0.57772960540622   -2.68763377702990   -2.06755698262563
H        -0.53176509701859   -2.20230744475813   -0.76586623585588
H        -0.87194049811680   -1.73490411803056   -2.44970830011347
O        -1.03572429848658   -9.02009019457558    3.80810744669980
H        -0.15982545719107   -8.79827035889556    3.42406379820100
C        -0.95028673778728   -8.92667692384051    5.21696576910359
H        -1.96627474801193   -8.97285515127808    5.60528692684467
H        -0.49010824153128   -7.98625090971713    5.52568953738127
H        -0.36833208891198   -9.75910104094379    5.62181592884068
O         7.94145484057483    0.92307257838444   -7.15083088706755
H         8.84473252159575    1.13262182286013   -6.89202649550316
C         7.87828756244677   -0.43141564823326   -7.54868140514599
H         6.86113875684231   -0.61945193612781   -7.88522067420278
H         8.10664186342105   -1.09954960289267   -6.71320565047433
H         8.56947150873301   -0.63518066452700   -8.37184849575718
O         0.83623232143899   -6.00162670844559    7.83176001261528
H        -0.07369955901949   -5.80609190117991    7.54394801002829
C         0.77322497751351   -7.08184068206426    8.72859314642428
H         1.79586136282003   -7.32279512120415    9.01687351863750
H         0.31740686565834   -7.96120274313120    8.26216404834729
H         0.20189514285786   -6.82247816664186    9.62657439131489
O         2.48839733206472   -7.39669200376236   -1.40960184209203
H         1.83204618557851   -7.10431737005166   -0.74660661864828
C         3.75670991296729   -6.89331854291963   -1.02474745286862
H         4.47392055123841   -7.23268090645660   -1.76771579056268
H         4.04705238389756   -7.26757284278068   -0.04167449822753
H         3.75222954811906   -5.80316468551603   -1.01347098586557
O         2.11703789278139    2.30263242181484   -0.78308592992036
H         2.31209462074470    3.06827906584682   -1.35513518575460
C         3.27090956722271    1.49302022415140   -0.68585873562030
H         3.02559168961475    0.67562815465612   -0.01044783842412
H         4.10621820277993    2.05927003697058   -0.27018466294781
H         3.56261678611586    1.09077847159719   -1.65845476338433
O         5.23818594824446    0.55840566998747   -3.34795397469939
H         5.54355949198600    1.48190920482526   -3.39955957548825
C         6.04326986985499   -0.18869011045144   -4.23405212739927
H         5.61371278312772   -1.18502440839103   -4.30672747756402
H         7.07078677085527   -0.26040862134405   -3.85921382787196
H         6.05864285387837    0.25786112166970   -5.23008976886679
O        -3.14354133299971   -7.89513401226194   -5.87096138407830
H        -2.45445592491524   -8.58182536866394   -5.81463665657345
C        -3.18444372917606   -7.43002940909960   -7.19692084653813
H        -3.89598688195083   -6.60547486047606   -7.22858561936040
H        -3.51954062066230   -8.21315801267793   -7.88529858003908
H        -2.20513564671899   -7.06597771190750   -7.52408530897338
O        -1.37260405813543    8.03351981401221    1.14886630086957
H        -1.42375004530759    7.33133184013780    1.84547025252526
C        -1.18017108846868    7.41392055965287   -0.11617912527160
H        -1.52137810463842    8.10232689717151   -0.88780880547364
H        -1.74755696000335    6.48935475008650   -0.19398824645390
H        -0.12193988652908    7.19085872559047   -0.27433004202919
O         0.93655784443888    9.13472680752110    2.04283533621097
H         0.07752657717484    8.79270465478952    1.69505421904321
C         0.64237119440073   10.18734911801753    2.94578487771318
H         1.56047071261858   10.41951380733232    3.48299013255749
H        -0.13072576577310    9.89258501283026    3.65425537862085
H         0.30932235003704   11.07634228579682    2.40231797301906
O         5.04611385611762   -3.24894408929169   -5.18577260397374
H         4.80802865537917   -3.43240917592022   -4.25346315871884
C         6.28481245784312   -3.85000527774475   -5.46205783416492
H         6.56488514670524   -3.55469730912007   -6.47310212047541
H         6.21729853684913   -4.94248745439743   -5.41188963087142
H         7.05952661242248   -3.51033431046128   -4.76707669657421
O         7.71570756379379    0.45547647733431    3.22536989764755
H         7.14797709752232    1.23063133645589    3.44995563836459
C         8.97934925933349    0.67100870999684    3.82440152471430
H         9.65430471439424   -0.09568324579463    3.44431079637062
H         8.91136271448038    0.57738548880999    4.91252661509069
H         9.37368116380041    1.65858634256335    3.57971458815708
O         3.96063747162671   -5.10989350416421   -9.60972903983821
H         3.47311343275181   -5.94395508688037   -9.44376324912959
C         5.19082149825686   -5.18816537282318   -8.91932881420405
H         5.70049234498545   -4.23504899497533   -9.05517755192358
H         5.81427550669717   -5.98970323830559   -9.32400796881008
H         5.03409073120912   -5.36221163233694   -7.85178120002264
O        -6.73839160560983    1.55624465234987    3.55228442874070
H        -6.34938660334711    1.50548395859627    2.64366407125280
C        -6.32921525027814    0.42165278639570    4.28330685638166
H        -6.77252949426377    0.50447595417146    5.27550921360315
H        -5.24097641961134    0.38558504232249    4.37673980758910
H        -6.68129677167930   -0.49829834145137    3.80882202977025
O         0.93574607961094   -1.95335795820021    5.01745885078396
H         0.74342354652428   -1.07403667759290    4.63807218060279
C        -0.15736851300637   -2.28579269370906    5.85967066642358
H         0.07408423089686   -3.23641443427955    6.33609477375630
H        -1.07363718467466   -2.38852936238814    5.27961803417009
H        -0.29708561428014   -1.52290010707047    6.62552334119649
O         2.24287884520304    6.66346501096414    2.63133312761856
H         1.92507506234959    7.57872611741181    2.55270985344049
C         2.94206650991778    6.33455210760801    1.44994878847990
H         3.11710275151372    5.25992513670476    1.46886324797357
H         3.90405468137111    6.85283389751983    1.40696226478420
H         2.35494739982178    6.57158540956813    0.55931028515338
O         2.11704608743353   -0.19723467648953   -9.17060378383765
H         2.26696832828605   -1.15611138877145   -9.10024357106624
C         2.69528387866251    0.41742230828334   -8.02880878643811
H         2.50735378287163    1.48632870519269   -8.10937124085648
H         3.77108096212979    0.23565717768886   -7.98695886086849
H         2.23313182728544    0.03989259634711   -7.11832279847963
O         1.44178192078031    1.95621840287159   -5.08907007611055
H         1.09694269400054    2.78655152617083   -5.49312427138338
C         2.81863732881148    2.18836909049136   -4.80956643076450
H         3.22123100148105    1.30014283611476   -4.32914097087069
H         2.93466574830235    3.03898518129615   -4.14049073585317
H         3.36495862909017    2.37753987783160   -5.73451177427200
O         1.78002942453202   -5.97743770298485   -5.38243309841929
H         0.91160261761061   -6.32996822816431   -5.09745893300405
C         2.41557964313548   -5.45182608113711   -4.22534191174970
H         3.34485251279691   -4.99439895506576   -4.54860658372647
H         2.62412449615462   -6.23985159731876   -3.50205843553283
H         1.79075683713982   -4.69392701664895   -3.75297456963229
O        -7.33152759286713    6.43048065858281   -2.17630851664627
H        -7.94293113835269    6.04425930885387   -2.83451880479369
C        -6.93400350986781    5.40876998127324   -1.28406158288052
H        -6.36266341650092    5.88417107505177   -0.49010095561783
H        -6.30627880462797    4.66722898707104   -1.78554232944144
H        -7.80082508703630    4.90803508326952   -0.84683668062963
O         8.90778477890002    2.70676753670227   -2.90452623838363
H         7.98164610315698    2.73865652329644   -3.24684838446568
C         9.78391462490284    2.71783394011989   -4.01143607142580
H        10.80035770743715    2.67073536265846   -3.62044582562466
H         9.66217589932953    3.63153568412118   -4.59687968118076
H         9.60989619272758    1.84747158570490   -4.64977140475712
O         1.84224046232117    1.98484111859032    8.09974870817882
H         1.96647898635282    2.18117613424912    7.16395749932324
C         1.50518674802018    0.61738494913858    8.22112915351768
H         1.46818442727002    0.39127534874107    9.28413207568954
H         2.25799493137674   -0.02251548354730    7.75738054789486
H         0.52687829909353    0.41299161699862    7.77760728034404
O        -0.76892250376712   -9.39191655628680   -5.53972198344942
H        -0.56659587933613   -8.51898782983495   -5.14755183077926
C        -0.67061087671077  -10.35586037051094   -4.51354012874239
H        -0.81614863280548  -11.33127778818841   -4.97529085522267
H        -1.44596079247704  -10.20284288441493   -3.75499612603081
H         0.31210542763149  -10.32794237988304   -4.03691150850452
O         2.77890989992380    8.05658494800619    7.13724197045060
H         3.33189239017530    7.31596713700756    6.83316943181758
C         2.24676799893267    8.67970083371891    5.99308670267911
H         1.54773233572417    9.44099420165785    6.33694678888910
H         1.71542346647520    7.96538796750470    5.35829242839183
H         3.03548605524129    9.16026383397666    5.40288028173976
O         6.29792524622437   -0.20977502295655    0.83837904104947
H         6.90696714568002    0.01223430247688    1.56236192123333
C         6.74887002515517    0.41592143604163   -0.34449194052125
H         6.00558711775289    0.22494168575769   -1.11606766015290
H         7.71355686650803    0.00711175993695   -0.66037936143627
H         6.85218797110004    1.49384231576653   -0.20863401877030
O        -1.71852883034166    4.23012174939320   -4.31380988344548
H        -1.57728375451581    3.34695940804642   -3.92956171398657
C        -2.13288581646199    5.10625963526759   -3.27276428241210
H        -2.04726110898383    6.12403587985306   -3.64440309104805
H        -1.50996399514549    4.99372788384789   -2.38660659771286
H        -3.17170266117748    4.91109412803861   -3.00763328749730
O         2.67400262940305   -7.39531091512883   -8.80892068870361
H         3.05289901243387   -7.66316191753913   -7.94625350832048
C         1.28710115627440   -7.20431872641229   -8.64086227566204
H         0.90016513623293   -6.84056441838789   -9.59203866376990
H         1.07987472866283   -6.46933636331065   -7.85786587329495
H         0.78423535052781   -8.14297776379178   -8.39020885039550
O         4.84478934002531    3.51634961990638   -8.16981011459593
H         3.99719734807719    3.69117719803904   -8.62487850783235
C         5.60648200554864    2.63734237134915   -8.97175120896923
H         6.46047929717253    2.31852783225772   -8.37700762932039
H         5.95986076990529    3.13719258908661   -9.88067202046185
H         5.02656786217454    1.75994681273197   -9.26012752215169
O        -2.22717860919431    9.58867653377803    4.43112579621451
H        -2.75531012578581    8.77085809912007    4.50863119727301
C        -3.07965702813877   10.59519790664365    3.94218182177128
H        -2.46625265905577   11.47694471840333    3.75696084339700
H        -3.85152023987858   10.85326126410013    4.67626120004948
H        -3.56447295464603   10.28824930414329    3.01200027069637
O         2.39775938359139   10.25648203640677    0.04258628084263
H         1.94697344842754    9.81716846329541    0.79759322006322
C         1.49932755762220   10.28825164495851   -1.04166298731767
H         1.99852729948154   10.80264214438585   -1.86237177986043
H         0.58883508245818   10.83644481825197   -0.78499654539998
H         1.22438841199858    9.27933062670650   -1.36296084530797
O         6.46273275718162    7.09540483906881   -4.32304684482270
H         6.32861712548664    7.49293276803553   -3.44258852487639
C         6.26819395786814    8.09837005239808   -5.30185815891847
H         6.24829910565774    7.59798167128410   -6.26896973724860
H         7.08292267151605    8.82830447224459   -5.28037139514200
H         5.32412399852067    8.62363117218042   -5.14486724484556
O        -3.67999900355012   -3.85591666030320   -0.77460630162292
H        -4.51043784632891   -4.24265664417471   -1.10114009835422
C        -3.26396103040966   -4.60502890547413    0.35319965859965
H        -2.43343738508409   -4.07055598216592    0.80820994256707
H        -2.92799691134960   -5.60084600886187    0.05251891959518
H        -4.06917210600395   -4.70006664069061    1.08185924791816
O        -1.66573234427497   -0.59179191991995    0.52308549551620
H        -1.21341463140580    0.16963626040563    0.11085312984874
C        -2.93618132311372   -0.70748791544038   -0.08038738283938
H        -3.34538411078304   -1.67124833859165    0.21227704461443
H        -2.85707263031576   -0.67875645159700   -1.16889397674519
H        -3.60839959687857    0.08740267093040    0.25709113967350
O        -4.82044928017689    3.05647054319110   -2.82771532711489
H        -4.67825764923393    2.64833988711996   -3.69728380351787
C        -3.99142041801390    2.40625129328092   -1.88775944854233
H        -4.11865744952294    2.91870744969377   -0.93741810765715
H        -2.93951216222625    2.45978368483001   -2.17212934414705
H        -4.27888260434338    1.35828043011506   -1.76708561452172
O        -2.21274500908622    2.74537104565972   -8.94117651452502
H        -2.83424408172375    2.00324159106702   -9.07323360207558
C        -2.73935156322133    3.87385206664218   -9.59267819935346
H        -2.01833000975585    4.68098972588862   -9.47163990025203
H        -3.69278749519237    4.17962723241930   -9.15021604904292
H        -2.88529642958288    3.68581786040257  -10.66149818909760
O         2.49450273949922    3.89987096950081   -9.58366331534395
H         2.19290493576086    3.13422656852375  -10.12612694678633
C         2.38344965766453    5.06680743510342  -10.35970205549899
H         2.70273325043564    5.90191559924371   -9.73625797534518
H         1.34918724114495    5.23614067233373  -10.67328529960170
H         3.01932436115422    5.01597809247789  -11.24956117387666
O        -3.78098993734080   -7.67900714691134    6.59186346198551
H        -4.52811541491607   -7.22436520015981    6.14786281419622
C        -4.25900529472840   -8.26799878655235    7.77734780789351
H        -3.40521388765379   -8.72215493496074    8.27953096954794
H        -4.99962430724024   -9.04416720847147    7.56348625902606
H        -4.70875303432760   -7.52448757175286    8.44273045916717
O         5.44972425411894   -8.55266546730046    1.55281438526875
H         6.05054943673403   -7.98320704405140    2.09692450170896
C         6.21599416886498   -9.11117969389322    0.51238333399508
H         5.56048701908663   -9.76525125269019   -0.06271252836776
H         7.05056253331011   -9.69986757371218    0.90498252966673
H         6.60676455687681   -8.33029778361190   -0.14589919385688
O        -6.22070765950200   -5.02877403297487   -1.08648864549846
H        -6.27942329502768   -4.98302704351213   -0.10074187550937
C        -7.37862791366268   -4.40803955660906   -1.61716991815070
H        -7.27611013348213   -4.38601176813503   -2.70107283944087
H        -7.47106828572271   -3.38261830994380   -1.25207880878015
H        -8.27389399702447   -4.96915593959317   -1.34255564511354
O        -7.46125206986216    1.80388636883933   -5.13446601192948
H        -6.49257016593208    1.66710471623608   -5.17370531404807
C        -7.83180445813068    1.93753682741989   -3.77524184767324
H        -8.86698200660421    2.27268770060211   -3.75231926731133
H        -7.20605023622131    2.67223543674703   -3.26662140387537
H        -7.75685483924461    0.97610110873675   -3.25869425336721
O         9.61651558285539    4.11898239410809    3.23447465185701
H         9.13582043085750    3.90114231425324    2.41588114506177
C         8.72144289548384    4.76154084532944    4.10940528938667
H         9.26561143160755    4.95975588695171    5.03215997119799
H         7.85861987688033    4.12864787836248    4.33136337696954
H         8.36858672508605    5.71299280178352    3.69538682691067
O        -1.92379263142266   -3.71417184568554   -8.33220944564742
H        -1.95453010762305   -2.74206644271351   -8.21647625305180
C        -0.93624524061879   -4.00462175748944   -9.29867458334792
H        -0.91556368559326   -5.08687566901777   -9.41818507399747
H         0.04920074882632   -3.65475367278164   -8.98175217256378