      -----------------------------------------------------------      
     |                   =====================                   |     
     |                           x T B                           |     
     |                   =====================                   |     
     |                         S. Grimme                         |     
     |          Mulliken Center for Theoretical Chemistry        |     
     |                    University of Bonn                     |     
      -----------------------------------------------------------      

   * xtb version 6.4.1 (afa7bdf) compiled by 'ehlert@majestix' on 2021-06-10

   xtb is free software: you can redistribute it and/or modify it under
   the terms of the GNU Lesser General Public License as published by
   the Free Software Foundation, either version 3 of the License, or
   (at your option) any later version.
   
   xtb is distributed in the hope that it will be useful,
   but WITHOUT ANY WARRANTY; without even the implied warranty of
   MERCHANTABILITY or FITNESS FOR A PARTICULAR PURPOSE.  See the
   GNU Lesser General Public License for more details.
   
   Cite this work as:
   * C. Bannwarth, E. Caldeweyher, S. Ehlert, A. Hansen, P. Pracht,
     J. Seibert, S. Spicher, S. Grimme, WIREs Comput. Mol. Sci., 2020, 11,
     e01493. DOI: 10.1002/wcms.1493
   
   for GFN2-xTB:
   * C. Bannwarth, S. Ehlert and S. Grimme., J. Chem. Theory Comput., 2019,
     15, 1652-1671. DOI: 10.1021/acs.jctc.8b01176
   for GFN1-xTB:
   * S. Grimme, C. Bannwarth, P. Shushkov, J. Chem. Theory Comput., 2017,
     13, 1989-2009. DOI: 10.1021/acs.jctc.7b00118
   for GFN0-xTB:
   * P. Pracht, E. Caldeweyher, S. Ehlert, S. Grimme, ChemRxiv, 2019, preprint.
     DOI: 10.26434/chemrxiv.8326202.v1
   for GFN-FF:
   * S. Spicher and S. Grimme, Angew. Chem. Int. Ed., 2020, 59, 15665-15673.
     DOI: 10.1002/anie.202004239
   
   for DFT-D4:
   * E. Caldeweyher, C. Bannwarth and S. Grimme, J. Chem. Phys., 2017,
     147, 034112. DOI: 10.1063/1.4993215
   * E. Caldeweyher, S. Ehlert, A. Hansen, H. Neugebauer, S. Spicher,
     C. Bannwarth and S. Grimme, J. Chem. Phys., 2019, 150, 154122.
     DOI: 10.1063/1.5090222
   * E. Caldeweyher, J.-M. Mewes, S. Ehlert and S. Grimme, Phys. Chem. Chem. Phys.
     2020, 22, 8499-8512. DOI: 10.1039/D0CP00502A
   
   for sTDA-xTB:
   * S. Grimme and C. Bannwarth, J. Chem. Phys., 2016, 145, 054103.
     DOI: 10.1063/1.4959605
   
   in the mass-spec context:
   * V. Asgeirsson, C. Bauer and S. Grimme, Chem. Sci., 2017, 8, 4879.
     DOI: 10.1039/c7sc00601b
   * J. Koopman and S. Grimme, ACS Omega 2019, 4, 12, 15120-15133.
     DOI: 10.1021/acsomega.9b02011
   
   for metadynamics refer to:
   * S. Grimme, J. Chem. Theory Comput., 2019, 155, 2847-2862
     DOI: 10.1021/acs.jctc.9b00143
   
   for SPH calculations refer to:
   * S. Spicher and S. Grimme, J. Chem. Theory Comput., 2021, 17, 1701-1714
     DOI: 10.1021/acs.jctc.0c01306
   
   with help from (in alphabetical order)
   P. Atkinson, C. Bannwarth, F. Bohle, G. Brandenburg, E. Caldeweyher
   M. Checinski, S. Dohm, S. Ehlert, S. Ehrlich, I. Gerasimov, J. Koopman
   C. Lavigne, S. Lehtola, F. März, M. Müller, F. Musil, H. Neugebauer
   J. Pisarek, C. Plett, P. Pracht, J. Seibert, P. Shushkov, S. Spicher
   M. Stahn, M. Steiner, T. Strunk, J. Stückrath, T. Rose, and J. Unsleber
   
 * started run on 2022/02/17 at 19:11:25.797     

           -------------------------------------------------
          |                Calculation Setup                |
           -------------------------------------------------

          program call               : /ihome/jkeith/amm503/codes/xtb-6.4.1/bin/xtb 1h2o.120meoh.pm.gfn2.xyz --md --input 1h2o.120meoh.pm.gfn2-xtb.md.eq1-gfn2.500k.wallpot.inp --gfn 2 --charge 0 --verbose
          hostname                   : smp-n175
          coordinate file            : 1h2o.120meoh.pm.gfn2.xyz
          xtbhome directory          : /ihome/jkeith/amm503
          path for xtb               : /ihome/jkeith/amm503
          xcontrol input file        : 1h2o.120meoh.pm.gfn2-xtb.md.eq1-gfn2.500k.wallpot.inp
          omp threads                :                    12
          number of atoms            :                   723
          number of electrons        :                  1688
          charge                     :                     0
          spin                       :                   0.0
          first test random number   :      0.10278303629558
          a pointer address          :            0x3DD27FEA
          random memory content      :      3FBA4FFD33791E15

$$$$$$$$$$$$$$$$$$$$$$$$$$$$$$$$$$$$$$$$$$$$$$$$$$$$$$$$$$$$$$$$$$$$$$$$
 CONSTRAINTS & SCANS: DEBUG SECTION
$$$$$$$$$$$$$$$$$$$$$$$$$$$$$$$$$$$$$$$$$$$$$$$$$$$$$$$$$$$$$$$$$$$$$$$$
   ID    Z sym.   atoms
    1    8 O      1, 4, 10, 16, 22, 28, 34, 40, 46, 52, 58, 64, 70, 76, 82,
                  88, 94, 100, 106, 112, 118, 124, 130, 136, 142, 148, 154,
                  160, 166, 172, 178, 184, 190, 196, 202, 208, 214, 220, 226,
                  232, 238, 244, 250, 256, 262, 268, 274, 280, 286, 292, 298,
                  304, 310, 316, 322, 328, 334, 340, 346, 352, 358, 364, 370,
                  376, 382, 388, 394, 400, 406, 412, 418, 424, 430, 436, 442,
                  448, 454, 460, 466, 472, 478, 484, 490, 496, 502, 508, 514,
                  520, 526, 532, 538, 544, 550, 556, 562, 568, 574, 580, 586,
                  592, 598, 604, 610, 616, 622, 628, 634, 640, 646, 652, 658,
                  664, 670, 676, 682, 688, 694, 700, 706, 712, 718
    2    1 H      2, 3, 5, 7-9, 11, 13-15, 17, 19-21, 23, 25-27, 29, 31-33,
                  35, 37-39, 41, 43-45, 47, 49-51, 53, 55-57, 59, 61-63, 65,
                  67-69, 71, 73-75, 77, 79-81, 83, 85-87, 89, 91-93, 95,
                  97-99, 101, 103-105, 107, 109-111, 113, 115-117, 119,
                  121-123, 125, 127-129, 131, 133-135, 137, 139-141, 143,
                  145-147, 149, 151-153, 155, 157-159, 161, 163-165, 167,
                  169-171, 173, 175-177, 179, 181-183, 185, 187-189, 191,
                  193-195, 197, 199-201, 203, 205-207, 209, 211-213, 215,
                  217-219, 221, 223-225, 227, 229-231, 233, 235-237, 239,
                  241-243, 245, 247-249, 251, 253-255, 257, 259-261, 263,
                  265-267, 269, 271-273, 275, 277-279, 281, 283-285, 287,
                  289-291, 293, 295-297, 299, 301-303, 305, 307-309, 311,
                  313-315, 317, 319-321, 323, 325-327, 329, 331-333, 335,
                  337-339, 341, 343-345, 347, 349-351, 353, 355-357, 359,
                  361-363, 365, 367-369, 371, 373-375, 377, 379-381, 383,
                  385-387, 389, 391-393, 395, 397-399, 401, 403-405, 407,
                  409-411, 413, 415-417, 419, 421-423, 425, 427-429, 431,
                  433-435, 437, 439-441, 443, 445-447, 449, 451-453, 455,
                  457-459, 461, 463-465, 467, 469-471, 473, 475-477, 479,
                  481-483, 485, 487-489, 491, 493-495, 497, 499-501, 503,
                  505-507, 509, 511-513, 515, 517-519, 521, 523-525, 527,
                  529-531, 533, 535-537, 539, 541-543, 545, 547-549, 551,
                  553-555, 557, 559-561, 563, 565-567, 569, 571-573, 575,
                  577-579, 581, 583-585, 587, 589-591, 593, 595-597, 599,
                  601-603, 605, 607-609, 611, 613-615, 617, 619-621, 623,
                  625-627, 629, 631-633, 635, 637-639, 641, 643-645, 647,
                  649-651, 653, 655-657, 659, 661-663, 665, 667-669, 671,
                  673-675, 677, 679-681, 683, 685-687, 689, 691-693, 695,
                  697-699, 701, 703-705, 707, 709-711, 713, 715-717, 719,
                  721-723
    3    6 C      6, 12, 18, 24, 30, 36, 42, 48, 54, 60, 66, 72, 78, 84, 90,
                  96, 102, 108, 114, 120, 126, 132, 138, 144, 150, 156, 162,
                  168, 174, 180, 186, 192, 198, 204, 210, 216, 222, 228, 234,
                  240, 246, 252, 258, 264, 270, 276, 282, 288, 294, 300, 306,
                  312, 318, 324, 330, 336, 342, 348, 354, 360, 366, 372, 378,
                  384, 390, 396, 402, 408, 414, 420, 426, 432, 438, 444, 450,
                  456, 462, 468, 474, 480, 486, 492, 498, 504, 510, 516, 522,
                  528, 534, 540, 546, 552, 558, 564, 570, 576, 582, 588, 594,
                  600, 606, 612, 618, 624, 630, 636, 642, 648, 654, 660, 666,
                  672, 678, 684, 690, 696, 702, 708, 714, 720
> wall
-> potential = logfermi
-> sphere: 23.62158, all
--> 1: 23.62158
--> 2: all
spherical wallpotenial with radius   12.5000030 Å
-> sphere: 2.83459, 1,2,3
--> 1: 2.83459
--> 2: 1
--> 3: 2
--> 4: 3
spherical wallpotenial with radius    1.5000006 Å
-> temp = 300.0
-> beta = 6
$$$$$$$$$$$$$$$$$$$$$$$$$$$$$$$$$$$$$$$$$$$$$$$$$$$$$$$$$$$$$$$$$$$$$$$$

molecular fragmentation (1/2 indicates fragments):
111222222222222222222222222222222222222222222222222222222222222222222222
222222222222222222222222222222222222222222222222222222222222222222222222
222222222222222222222222222222222222222222222222222222222222222222222222
222222222222222222222222222222222222222222222222222222222222222222222222
222222222222222222222222222222222222222222222222222222222222222222222222
222222222222222222222222222222222222222222222222222222222222222222222222
222222222222222222222222222222222222222222222222222222222222222222222222
222222222222222222222222222222222222222222222222222222222222222222222222
222222222222222222222222222222222222222222222222222222222222222222222222
222222222222222222222222222222222222222222222222222222222222222222222222
222
# atoms in fragment 1/2:     3   720
 fragment masses (1/2) :       18.02     3845.03
CMA distance (Bohr)    :   3.532
constraining FC (au)   :  0.0500

           -------------------------------------------------
          |                 G F N 2 - x T B                 |
           -------------------------------------------------

        Reference                      10.1021/acs.jctc.8b01176
      * Hamiltonian:
        H0-scaling (s, p, d)           1.850000    2.230000    2.230000
        zeta-weighting                 0.500000
      * Dispersion:
        s8                             2.700000
        a1                             0.520000
        a2                             5.000000
        s9                             5.000000
      * Repulsion:
        kExp                           1.500000    1.000000
        rExp                           1.000000
      * Coulomb:
        alpha                          2.000000
        third order                    shell-resolved
        anisotropic                    true
        a3                             3.000000
        a5                             4.000000
        cn-shift                       1.200000
        cn-exp                         4.000000
        max-rad                        5.000000


          ...................................................
          :                      SETUP                      :
          :.................................................:
          :  # basis functions                1446          :
          :  # atomic orbitals                1446          :
          :  # shells                          964          :
          :  # electrons                      1688          :
          :  max. iterations                   250          :
          :  Hamiltonian                  GFN2-xTB          :
          :  restarted?                      false          :
          :  GBSA solvation                  false          :
          :  PC potential                    false          :
          :  electronic temp.          300.0000000     K    :
          :  accuracy                    1.0000000          :
          :  -> integral cutoff          0.2500000E+02      :
          :  -> integral neglect         0.1000000E-07      :
          :  -> SCF convergence          0.1000000E-05 Eh   :
          :  -> wf. convergence          0.1000000E-03 e    :
          :  Broyden damping             0.4000000          :
          ...................................................

 iter      E             dE          RMSdq      gap      omega  full diag
   1  -1001.4372593 -0.100144E+04  0.416E+00   10.55       0.0  T
   2  -1002.4939230 -0.105666E+01  0.229E+00    9.98       1.0  T
   3  -1002.5331315 -0.392084E-01  0.683E-01    9.45       1.0  T
   4  -1002.5378598 -0.472831E-02  0.112E-01    9.35       1.0  T
   5  -1002.5382161 -0.356378E-03  0.332E-02    9.45       1.0  T
   6  -1002.5382710 -0.548899E-04  0.104E-02    9.45       1.0  T
   7  -1002.5382768 -0.579208E-05  0.304E-03    9.44       1.2  T
   8  -1002.5382772 -0.323543E-06  0.447E-04    9.44       8.3  T
   9  -1002.5382772 -0.109845E-07  0.166E-04    9.44      22.4  T

   *** convergence criteria satisfied after 9 iterations ***

 SCC (total)                   0 d,  0 h,  0 min,  7.295 sec
 SCC setup                      ...        0 min,  0.009 sec (  0.129%)
 Dispersion                     ...        0 min,  0.050 sec (  0.681%)
 classical contributions        ...        0 min,  0.003 sec (  0.045%)
 integral evaluation            ...        0 min,  0.194 sec (  2.658%)
 iterations                     ...        0 min,  4.864 sec ( 66.673%)
 molecular gradient             ...        0 min,  2.081 sec ( 28.530%)
 printout                       ...        0 min,  0.093 sec (  1.281%)

         :::::::::::::::::::::::::::::::::::::::::::::::::::::
         ::                     SUMMARY                     ::
         :::::::::::::::::::::::::::::::::::::::::::::::::::::
         :: total energy            -993.709652431952 Eh    ::
         :: gradient norm              0.028600907669 Eh/a0 ::
         :: HOMO-LUMO gap              9.439423838525 eV    ::
         ::.................................................::
         :: HOMO orbital eigv.       -10.046202443852 eV    ::
         :: LUMO orbital eigv.        -0.606778605327 eV    ::
         ::.................................................::
         :: SCC energy             -1002.538277162313 Eh    ::
         :: -> isotropic ES            2.849940828984 Eh    ::
         :: -> anisotropic ES         -0.333608012940 Eh    ::
         :: -> anisotropic XC          0.044384491983 Eh    ::
         :: -> dispersion             -0.696949048082 Eh    ::
         :: repulsion energy           8.590842870552 Eh    ::
         :: add. restraining           0.148264217251 Eh    ::
         :: total charge              -0.000000000001 e     ::
         ::.................................................::
         :: atomisation energy       153.792759436621 Eh    ::
         :::::::::::::::::::::::::::::::::::::::::::::::::::::

           -------------------------------------------------
          |                Property Printout                |
           -------------------------------------------------

           -------------------------------------------------
          | TOTAL ENERGY             -993.709652431952 Eh   |
          | GRADIENT NORM               0.028600907669 Eh/α |
          | HOMO-LUMO GAP               9.439423838525 eV   |
           -------------------------------------------------
           ------------------------------------------------- 
          |               Molecular Dynamics                |
           ------------------------------------------------- 
 trajectories on xtb.trj or xtb.trj.<n>
 
 MD time /ps        :   10.00
 dt /fs             :    1.00
 SCC accuracy       :    1.00
 temperature /K     :  500.00
 max steps          : 10000
 block length (av.) :  5000
 dumpstep(trj) /fs  :   50.00    50
 dumpstep(coords)/fs: 1000.00  1000
 H atoms mass (amu) :     1
 # deg. of freedom  :  2169
 SHAKE off
 Berendsen THERMOSTAT on
         time (ps)    <Epot>      Ekin   <T>   T     Etot
      0    0.00      0.00000   5.1516    0.    0.  -988.55805
est. speed in wall clock h for 100 ps :189.16
    200    0.20   -986.34980   2.4443  753.  712.  -988.92939
    400    0.40   -988.82623   2.2964  717.  669.  -989.09519
    600    0.60   -989.66774   2.0151  688.  587.  -989.33007
    800    0.80   -990.10670   2.0240  667.  589.  -989.46549
   1000    1.00   -990.38575   1.9980  651.  582.  -989.61187
   1200    1.20   -990.58136   1.9883  637.  579.  -989.64010
   1400    1.40   -990.72761   1.8767  626.  546.  -989.78526
   1600    1.60   -990.84347   1.8964  617.  552.  -989.81255
   1800    1.80   -990.93829   1.8757  608.  546.  -989.91224
   2000    2.00   -991.01835   1.8287  601.  532.  -989.89850
   2200    2.20   -991.08641   1.8675  595.  544.  -989.97877
   2400    2.40   -991.14509   1.7297  589.  504.  -989.98982
   2600    2.60   -991.19386   1.8289  584.  533.  -990.03180
   2800    2.80   -991.23754   1.7373  579.  506.  -990.05244
   3000    3.00   -991.27662   1.8031  574.  525.  -990.05837
   3200    3.20   -991.31005   1.7595  570.  512.  -990.09945
   3400    3.40   -991.33850   1.6803  566.  489.  -990.11548
   3600    3.60   -991.36484   1.7097  563.  498.  -990.08830
   3800    3.80   -991.38901   1.6473  560.  480.  -990.10705
   4000    4.00   -991.41137   1.7569  557.  512.  -990.09443
   4200    4.20   -991.43220   1.7101  554.  498.  -990.14456
   4400    4.40   -991.44994   1.7701  552.  515.  -990.13004
   4600    4.60   -991.46750   1.7139  550.  499.  -990.12175
   4800    4.80   -991.48373   1.7882  548.  521.  -990.10774
block <Epot> / <T> :    -991.69756  546.     drift:  0.99D+02   Tbath : 500.
   5000    5.00   -991.49926   1.7567  546.  512.  -990.16609
   5200    5.20   -991.51309   1.7410  545.  507.  -990.13046
   5400    5.40   -991.52549   1.6504  543.  481.  -990.17939
   5600    5.60   -991.53707   1.6177  541.  471.  -990.16128
   5800    5.80   -991.54800   1.7331  540.  505.  -990.14865
   6000    6.00   -991.55860   1.7874  539.  520.  -990.12547
   6200    6.20   -991.56907   1.7475  537.  509.  -990.13868
   6400    6.40   -991.57870   1.7318  536.  504.  -990.12970
   6600    6.60   -991.58710   1.6993  535.  495.  -990.17808
   6800    6.80   -991.59522   1.6804  534.  489.  -990.12557
   7000    7.00   -991.60234   1.7020  533.  496.  -990.11595
   7200    7.20   -991.60887   1.7166  532.  500.  -990.13766
   7400    7.40   -991.61536   1.6948  531.  493.  -990.15443
   7600    7.60   -991.62106   1.6672  530.  485.  -990.11894
   7800    7.80   -991.62645   1.7076  529.  497.  -990.11067
   8000    8.00   -991.63174   1.7105  528.  498.  -990.11561
   8200    8.20   -991.63721   1.6619  528.  484.  -990.08770
   8400    8.40   -991.64228   1.7141  527.  499.  -990.14938
   8600    8.60   -991.64736   1.7215  527.  501.  -990.11438
   8800    8.80   -991.65155   1.6660  526.  485.  -990.12848
   9000    9.00   -991.65563   1.7057  525.  497.  -990.14109
   9200    9.20   -991.65943   1.6628  525.  484.  -990.10560
   9400    9.40   -991.66297   1.6276  524.  474.  -990.16210
   9600    9.60   -991.66653   1.6644  523.  485.  -990.12681
   9800    9.80   -991.66979   1.6970  523.  494.  -990.13422
 average properties 
 Epot               :  -991.673089209627     
 Epot (accurate SCC):  -991.771829504958     
 Ekin               :   1.79432794141482     
 Etot               :  -989.878761268212     
 T                  :   522.456878068899     
 thermostating problem
 normal exit of md()

------------------------------------------------------------------------
 unit  open   action     filename
  129 false : read       1h2o.120meoh.pm.gfn2-xtb.md.eq1-gfn2.500k.wallpot.inp
  130 false : read       1h2o.120meoh.pm.gfn2.xyz
  131 false : read       1h2o.120meoh.pm.gfn2-xtb.md.eq1-gfn2.500k.wallpot.inp
  132 false : written    xtb.trj
  133 false : written    scoord.1
  134 false : written    scoord.2
  135 false : written    scoord.3
  136 false : written    scoord.4
  137 false : written    scoord.5
  138 false : written    scoord.6
  139 false : written    scoord.7
  140 false : written    scoord.8
  141 false : written    scoord.9
  142 false : written    mdrestart
  143 false : created    xtbmdok
  144 false : written    xtbrestart

------------------------------------------------------------------------
 * finished run on 2022/02/18 at 12:18:41.792     
------------------------------------------------------------------------
 total:
 * wall-time:     0 d, 17 h,  7 min, 15.994 sec
 *  cpu-time:     7 d, 10 h, 48 min, 36.226 sec
 * ratio c/w:    10.444 speedup
 SCF:
 * wall-time:     0 d,  0 h,  0 min,  7.300 sec
 *  cpu-time:     0 d,  0 h,  1 min, 18.318 sec
 * ratio c/w:    10.728 speedup
 MD:
 * wall-time:     0 d, 17 h,  7 min,  8.287 sec
 *  cpu-time:     7 d, 10 h, 47 min, 14.801 sec
 * ratio c/w:    10.444 speedup

normal termination of xtb
