90
 energy: -152.624675495341 gnorm: 0.000945854334 xtb: 6.5.1 (579679a)
O            2.25120289029939        1.10108143576949       -4.02490867553866
H            2.66294234216607        1.80984447363591       -3.50821402297169
H            2.75775172096255        0.28312631261036       -3.81184664931766
O           -0.95256449623638       -0.57392963214208        3.45183518767458
H           -0.84818456826293       -1.27362346980566        2.78756646733230
H           -0.06148540282055       -0.45371698350298        3.84742126645326
O            3.30300434795651       -1.10659167453055       -2.94516323501285
H            2.50827286536011       -1.65204688619153       -2.83746926056623
H            3.41288267550615       -0.65833160418960       -2.08589020357239
O            0.73524536660530       -2.03389451584690       -2.34705000465398
H            0.22950049335087       -2.13006373331815       -3.16672324651899
H            0.60612360671740       -1.09688884285503       -2.09200010262439
O            3.73547285800594       -1.23663585026649        3.12025014527739
H            4.10213805514668       -0.56938145960607        2.50152074503866
H            4.38861131532885       -1.36474584433919        3.80825090078147
O           -1.81012150395619       -0.00648839549023       -0.00676117393343
H           -1.83614510967115       -0.15163181021211       -0.97347976974157
H           -2.76467357464035       -0.01721187915043        0.27755949121795
O           -1.42257911345813        2.01266847979891        3.20025413175295
H           -1.29388715955063        1.02857953603097        3.22346862014552
H           -1.70766857128757        2.26003440915427        4.07956713342920
O            2.89345484914112        2.75544214354230       -1.88778150860957
H            3.49657820435273        3.34480693042225       -1.39103087940482
H            1.99415867360036        3.03010993894717       -1.63790031345880
O           -2.13936233892799       -0.12779368044202       -2.67146156366043
H           -1.28782451455160        0.36991604862680       -2.67275109412832
H           -2.85147367181497        0.55311262426280       -2.62860331932758
O           -4.35043711206675       -0.18803348186715        0.53666635986242
H           -4.27276962068296       -0.60328109463225        1.42516151909861
H           -4.51967369685446       -0.91788464584039       -0.08696820169943
O           -3.62143015311021       -1.47047047578363        2.76864023592065
H           -3.05937169383121       -2.10902585947174        2.30288025407426
H           -3.00285349442243       -0.98591698576825        3.32736636146122
O           -1.68193979600845        2.63367702238055        0.57481229392192
H           -1.67455372296018        2.61518917959202        1.54440705361685
H           -1.71384200336031        1.68913517246345        0.31698659797033
O            3.82284953073164        3.10403101666555        2.11442089534857
H            4.20377423070208        2.21886676813607        1.99514649071269
H            2.87811417737352        2.95230264281379        2.27999405249979
O           -3.34237010721480        3.82657814108370       -1.20388616826500
H           -3.92002313187992        4.42292863266960       -0.72756042913908
H           -2.70465103287727        3.47484593836176       -0.54969323785201
O            0.37176672598282        0.60411750058628       -2.17437564625062
H            0.98674660444200        0.78542370102518       -2.91909300329630
H            0.37934684496257        1.42632334131966       -1.64845216681300
O            1.24491587793962        2.21358395108296        2.47070962358131
H            1.14669514832218        1.55928928010686        1.74547653191014
H            0.33909145285392        2.41758959057187        2.74729607553693
O           -4.33423096773400       -1.70622627644674       -1.75392089128073
H           -5.01250701265737       -1.25882346372627       -2.26329010892846
H           -3.49196054583264       -1.36147163604393       -2.08154871983191
O            0.26148299558287        3.14141335569352       -1.23464523917818
H           -0.34338241731918        3.17843142899437       -1.99898527221953
H           -0.31355250388024        3.12226135805265       -0.45046716615753
O           -0.96708408513553       -1.62849503994127       -4.55498482503959
H           -1.54174130743639       -1.14864389802236       -3.92217541480238
H           -1.53957989665475       -2.12980446671062       -5.13512399545743
O           -1.49804942404128       -2.41247673586213        1.29292423921557
H           -1.53848751128852       -1.60415746094457        0.75274685926920
H           -0.82779260314129       -2.97319022425615        0.88337573828020
O            0.85719964426450        0.23387363952974        0.71252241446249
H            1.00602703850156       -0.57499626181501        1.26087915547257
H           -0.05854986199189        0.18069626264000        0.40605607490960
O            4.35873952106253        4.25524377690058       -0.22308169160130
H            4.17625363137259        3.85509230762832        0.66250508446915
H            4.28203051423339        5.20228556081059       -0.10738214323595
O           -1.40796522328477        2.58013934165332       -3.29418656305244
H           -1.02181585877378        2.12508512725308       -4.07381985667279
H           -2.10423384086937        3.15863084838944       -3.60269440686876
O            1.51612072082741        0.15779691466020        4.27756411101432
H            1.54322246274884        0.97299680436681        3.74178189246683
H            2.22988421482998       -0.39961825892485        3.93863363348384
O           -4.21724787153347        1.37493265367295       -1.97931408634760
H           -4.43515295548269        1.03272616616675       -1.10307686429490
H           -3.93043384737545        2.29743600397428       -1.83575161770192
O            0.64525601948158       -3.57831029609696       -0.15476829394553
H            0.81163208347916       -4.47447153418486       -0.44570614881724
H            0.67871594537531       -3.01317639185311       -0.95803880889053
O            1.29974399540190       -1.99397445454454        2.03393864565156
H            2.19537069792012       -1.96133983252224        2.39323993100106
H            1.26863605070080       -2.67500848155058        1.34772970336554
O           -0.24319075963198        1.09095727661368       -5.23111787815875
H            0.69992899646811        1.20311845702257       -5.03476253523092
H           -0.40827133017173        0.14132675524140       -5.14300596708372
O            4.73472962548377        0.57590137941139        1.38896193828557
H            4.13645155041177        0.50702744229083        0.59124869009581
H            5.62944529076219        0.57647775859613        1.04802769600075
O            3.14555883678276        0.41175812183446       -0.67199572170493
H            2.26301861606164        0.31049729366650       -0.25780564887382
H            3.11430409318576        1.28740326237157       -1.13023450450887
